 Entering Gaussian System, Link 0=g09
 Input=PEG.com
 Output=PEG.log
 Initial command:
 /gscratch/pfaendtner/codes/G09/g09/l1.exe /gscratch/pfaendtner/josh/gaussian/Gau-15793.inp -scrdir=/gscratch/pfaendtner/josh/gaussian/
 Entering Link 1 = /gscratch/pfaendtner/codes/G09/g09/l1.exe PID=     15803.
  
 Copyright (c) 1988,1990,1992,1993,1995,1998,2003,2009, Gaussian, Inc.
                  All Rights Reserved.
  
 This is part of the Gaussian(R) 09 program.  It is based on
 the Gaussian(R) 03 system (copyright 2003, Gaussian, Inc.),
 the Gaussian(R) 98 system (copyright 1998, Gaussian, Inc.),
 the Gaussian(R) 94 system (copyright 1995, Gaussian, Inc.),
 the Gaussian 92(TM) system (copyright 1992, Gaussian, Inc.),
 the Gaussian 90(TM) system (copyright 1990, Gaussian, Inc.),
 the Gaussian 88(TM) system (copyright 1988, Gaussian, Inc.),
 the Gaussian 86(TM) system (copyright 1986, Carnegie Mellon
 University), and the Gaussian 82(TM) system (copyright 1983,
 Carnegie Mellon University). Gaussian is a federally registered
 trademark of Gaussian, Inc.
  
 This software contains proprietary and confidential information,
 including trade secrets, belonging to Gaussian, Inc.
  
 This software is provided under written license and may be
 used, copied, transmitted, or stored only in accord with that
 written license.
  
 The following legend is applicable only to US Government
 contracts under FAR:
  
                    RESTRICTED RIGHTS LEGEND
  
 Use, reproduction and disclosure by the US Government is
 subject to restrictions as set forth in subparagraphs (a)
 and (c) of the Commercial Computer Software - Restricted
 Rights clause in FAR 52.227-19.
  
 Gaussian, Inc.
 340 Quinnipiac St., Bldg. 40, Wallingford CT 06492
  
  
 ---------------------------------------------------------------
 Warning -- This program may not be used in any manner that
 competes with the business of Gaussian, Inc. or will provide
 assistance to any competitor of Gaussian, Inc.  The licensee
 of this program is prohibited from giving any competitor of
 Gaussian, Inc. access to this program.  By using this program,
 the user acknowledges that Gaussian, Inc. is engaged in the
 business of creating and licensing software in the field of
 computational chemistry and represents and warrants to the
 licensee that it is not a competitor of Gaussian, Inc. and that
 it will not use this program in any manner prohibited above.
 ---------------------------------------------------------------
  

 Cite this work as:
 Gaussian 09, Revision A.02,
 M. J. Frisch, G. W. Trucks, H. B. Schlegel, G. E. Scuseria, 
 M. A. Robb, J. R. Cheeseman, G. Scalmani, V. Barone, B. Mennucci, 
 G. A. Petersson, H. Nakatsuji, M. Caricato, X. Li, H. P. Hratchian, 
 A. F. Izmaylov, J. Bloino, G. Zheng, J. L. Sonnenberg, M. Hada, 
 M. Ehara, K. Toyota, R. Fukuda, J. Hasegawa, M. Ishida, T. Nakajima, 
 Y. Honda, O. Kitao, H. Nakai, T. Vreven, J. A. Montgomery, Jr., 
 J. E. Peralta, F. Ogliaro, M. Bearpark, J. J. Heyd, E. Brothers, 
 K. N. Kudin, V. N. Staroverov, R. Kobayashi, J. Normand, 
 K. Raghavachari, A. Rendell, J. C. Burant, S. S. Iyengar, J. Tomasi, 
 M. Cossi, N. Rega, J. M. Millam, M. Klene, J. E. Knox, J. B. Cross, 
 V. Bakken, C. Adamo, J. Jaramillo, R. Gomperts, R. E. Stratmann, 
 O. Yazyev, A. J. Austin, R. Cammi, C. Pomelli, J. W. Ochterski, 
 R. L. Martin, K. Morokuma, V. G. Zakrzewski, G. A. Voth, 
 P. Salvador, J. J. Dannenberg, S. Dapprich, A. D. Daniels, 
 O. Farkas, J. B. Foresman, J. V. Ortiz, J. Cioslowski, 
 and D. J. Fox, Gaussian, Inc., Wallingford CT, 2009.
 
 ******************************************
 Gaussian 09:  EM64L-G09RevA.02 11-Jun-2009
                 2-May-2017 
 ******************************************
 %chk=molecule
 -------------------------------------------------------------------
 #HF/6-31G* SCF=tight Test Pop=MK iop(6/33=2) NoSymm iop(6/42=6) opt
 -------------------------------------------------------------------
 1/18=20,19=15,38=1/1,3;
 2/9=110,12=2,15=1,17=6,18=5,40=1/2;
 3/5=1,6=6,7=1,11=9,16=1,25=1,30=1,71=1/1,2,3;
 4//1;
 5/5=2,32=2,38=5/2;
 6/7=2,8=2,9=2,10=2,15=8,20=1,28=1,33=2,42=6/1,2;
 7/30=1/1,2,3,16;
 1/18=20,19=15/3(2);
 2/9=110,15=1/2;
 99//99;
 2/9=110,15=1/2;
 3/5=1,6=6,7=1,11=9,16=1,25=1,30=1,71=1/1,2,3;
 4/5=5,16=3/1;
 5/5=2,32=2,38=5/2;
 7/30=1/1,2,3,16;
 1/18=20,19=15/3(-5);
 2/9=110,15=1/2;
 6/7=2,8=2,9=2,10=2,15=8,19=2,20=1,28=1,33=2,42=6/1,2;
 99/9=1/99;
 ---------------------
 remark line goes here
 ---------------------
 Symbolic Z-matrix:
 Charge =  0 Multiplicity = 1
 C                    -3.87097   1.00979  -0.00036 
 H                    -3.51456   0.00089  -0.00058 
 H                    -3.51282   1.51476  -0.87307 
 H                    -4.94097   1.01006  -0.00202 
 O                    -3.39594   1.68288   1.16848 
 C                    -3.87227   3.03122   1.16877 
 H                    -4.94227   3.03149   1.16711 
 H                    -3.51412   3.5362    0.29606 
 C                    -3.3607    3.75609   2.42752 
 H                    -2.2907    3.75582   2.42918 
 H                    -3.71885   3.25111   3.30023 
 O                    -3.83703   5.10443   2.42781 
 C                    -3.362     5.77753   3.59665 
 H                    -2.292     5.77726   3.59831 
 H                    -3.72015   5.27255   4.46937 
 C                    -3.87497   7.22958   3.59697 
 H                    -3.51682   7.73456   2.72425 
 H                    -4.94496   7.22985   3.59531 
 O                    -3.39994   7.90268   4.76581 
 C                    -3.87627   9.25102   4.7661 
 H                    -4.94626   9.25129   4.76444 
 H                    -3.51812   9.756     3.89339 
 C                    -3.3647    9.97589   6.02485 
 H                    -2.2947    9.97562   6.02651 
 H                    -3.72285   9.47091   6.89756 
 O                    -3.84102   11.32423   6.02514 
 C                    -3.366     11.99732   7.19398 
 H                    -2.296     11.99705   7.19564 
 H                    -3.72414   11.49234   8.0667 
 C                    -3.87897   13.44938   7.1943 
 H                    -3.52066   13.95463   6.32181 
 H                    -4.94897   13.44991   7.1926 
 O                    -3.40382   14.12187   8.36344 
 C                    -3.87941   15.47047   8.36486 
 H                    -4.94941   15.47132   8.36326 
 H                    -3.52104   15.97596   7.49254 
 C                    -3.36739   16.19403   9.62418 
 H                    -2.29739   16.19317   9.62578 
 H                    -3.72576   15.68853   10.49649 
 O                    -3.84298   17.54262   9.6256 
 H                    -3.52401   17.99408   10.41048 
 

 GradGradGradGradGradGradGradGradGradGradGradGradGradGradGradGradGradGrad
 Berny optimization.
 Initialization pass.
                           ----------------------------
                           !    Initial Parameters    !
                           ! (Angstroms and Degrees)  !
 --------------------------                            --------------------------
 ! Name  Definition              Value          Derivative Info.                !
 --------------------------------------------------------------------------------
 ! R1    R(1,2)                  1.07           estimate D2E/DX2                !
 ! R2    R(1,3)                  1.07           estimate D2E/DX2                !
 ! R3    R(1,4)                  1.07           estimate D2E/DX2                !
 ! R4    R(1,5)                  1.43           estimate D2E/DX2                !
 ! R5    R(5,6)                  1.43           estimate D2E/DX2                !
 ! R6    R(6,7)                  1.07           estimate D2E/DX2                !
 ! R7    R(6,8)                  1.07           estimate D2E/DX2                !
 ! R8    R(6,9)                  1.54           estimate D2E/DX2                !
 ! R9    R(9,10)                 1.07           estimate D2E/DX2                !
 ! R10   R(9,11)                 1.07           estimate D2E/DX2                !
 ! R11   R(9,12)                 1.43           estimate D2E/DX2                !
 ! R12   R(12,13)                1.43           estimate D2E/DX2                !
 ! R13   R(13,14)                1.07           estimate D2E/DX2                !
 ! R14   R(13,15)                1.07           estimate D2E/DX2                !
 ! R15   R(13,16)                1.54           estimate D2E/DX2                !
 ! R16   R(16,17)                1.07           estimate D2E/DX2                !
 ! R17   R(16,18)                1.07           estimate D2E/DX2                !
 ! R18   R(16,19)                1.43           estimate D2E/DX2                !
 ! R19   R(19,20)                1.43           estimate D2E/DX2                !
 ! R20   R(20,21)                1.07           estimate D2E/DX2                !
 ! R21   R(20,22)                1.07           estimate D2E/DX2                !
 ! R22   R(20,23)                1.54           estimate D2E/DX2                !
 ! R23   R(23,24)                1.07           estimate D2E/DX2                !
 ! R24   R(23,25)                1.07           estimate D2E/DX2                !
 ! R25   R(23,26)                1.43           estimate D2E/DX2                !
 ! R26   R(26,27)                1.43           estimate D2E/DX2                !
 ! R27   R(27,28)                1.07           estimate D2E/DX2                !
 ! R28   R(27,29)                1.07           estimate D2E/DX2                !
 ! R29   R(27,30)                1.54           estimate D2E/DX2                !
 ! R30   R(30,31)                1.07           estimate D2E/DX2                !
 ! R31   R(30,32)                1.07           estimate D2E/DX2                !
 ! R32   R(30,33)                1.43           estimate D2E/DX2                !
 ! R33   R(33,34)                1.43           estimate D2E/DX2                !
 ! R34   R(34,35)                1.07           estimate D2E/DX2                !
 ! R35   R(34,36)                1.07           estimate D2E/DX2                !
 ! R36   R(34,37)                1.54           estimate D2E/DX2                !
 ! R37   R(37,38)                1.07           estimate D2E/DX2                !
 ! R38   R(37,39)                1.07           estimate D2E/DX2                !
 ! R39   R(37,40)                1.43           estimate D2E/DX2                !
 ! R40   R(40,41)                0.96           estimate D2E/DX2                !
 ! A1    A(2,1,3)              109.4712         estimate D2E/DX2                !
 ! A2    A(2,1,4)              109.4712         estimate D2E/DX2                !
 ! A3    A(2,1,5)              109.4712         estimate D2E/DX2                !
 ! A4    A(3,1,4)              109.4712         estimate D2E/DX2                !
 ! A5    A(3,1,5)              109.4712         estimate D2E/DX2                !
 ! A6    A(4,1,5)              109.4712         estimate D2E/DX2                !
 ! A7    A(1,5,6)              109.4712         estimate D2E/DX2                !
 ! A8    A(5,6,7)              109.4712         estimate D2E/DX2                !
 ! A9    A(5,6,8)              109.4712         estimate D2E/DX2                !
 ! A10   A(5,6,9)              109.4712         estimate D2E/DX2                !
 ! A11   A(7,6,8)              109.4712         estimate D2E/DX2                !
 ! A12   A(7,6,9)              109.4712         estimate D2E/DX2                !
 ! A13   A(8,6,9)              109.4712         estimate D2E/DX2                !
 ! A14   A(6,9,10)             109.4712         estimate D2E/DX2                !
 ! A15   A(6,9,11)             109.4712         estimate D2E/DX2                !
 ! A16   A(6,9,12)             109.4712         estimate D2E/DX2                !
 ! A17   A(10,9,11)            109.4712         estimate D2E/DX2                !
 ! A18   A(10,9,12)            109.4712         estimate D2E/DX2                !
 ! A19   A(11,9,12)            109.4712         estimate D2E/DX2                !
 ! A20   A(9,12,13)            109.4712         estimate D2E/DX2                !
 ! A21   A(12,13,14)           109.4712         estimate D2E/DX2                !
 ! A22   A(12,13,15)           109.4712         estimate D2E/DX2                !
 ! A23   A(12,13,16)           109.4712         estimate D2E/DX2                !
 ! A24   A(14,13,15)           109.4712         estimate D2E/DX2                !
 ! A25   A(14,13,16)           109.4712         estimate D2E/DX2                !
 ! A26   A(15,13,16)           109.4712         estimate D2E/DX2                !
 ! A27   A(13,16,17)           109.4712         estimate D2E/DX2                !
 ! A28   A(13,16,18)           109.4712         estimate D2E/DX2                !
 ! A29   A(13,16,19)           109.4712         estimate D2E/DX2                !
 ! A30   A(17,16,18)           109.4712         estimate D2E/DX2                !
 ! A31   A(17,16,19)           109.4712         estimate D2E/DX2                !
 ! A32   A(18,16,19)           109.4712         estimate D2E/DX2                !
 ! A33   A(16,19,20)           109.4712         estimate D2E/DX2                !
 ! A34   A(19,20,21)           109.4712         estimate D2E/DX2                !
 ! A35   A(19,20,22)           109.4712         estimate D2E/DX2                !
 ! A36   A(19,20,23)           109.4712         estimate D2E/DX2                !
 ! A37   A(21,20,22)           109.4712         estimate D2E/DX2                !
 ! A38   A(21,20,23)           109.4712         estimate D2E/DX2                !
 ! A39   A(22,20,23)           109.4712         estimate D2E/DX2                !
 ! A40   A(20,23,24)           109.4712         estimate D2E/DX2                !
 ! A41   A(20,23,25)           109.4712         estimate D2E/DX2                !
 ! A42   A(20,23,26)           109.4712         estimate D2E/DX2                !
 ! A43   A(24,23,25)           109.4712         estimate D2E/DX2                !
 ! A44   A(24,23,26)           109.4712         estimate D2E/DX2                !
 ! A45   A(25,23,26)           109.4712         estimate D2E/DX2                !
 ! A46   A(23,26,27)           109.4712         estimate D2E/DX2                !
 ! A47   A(26,27,28)           109.4712         estimate D2E/DX2                !
 ! A48   A(26,27,29)           109.4712         estimate D2E/DX2                !
 ! A49   A(26,27,30)           109.4712         estimate D2E/DX2                !
 ! A50   A(28,27,29)           109.4712         estimate D2E/DX2                !
 ! A51   A(28,27,30)           109.4713         estimate D2E/DX2                !
 ! A52   A(29,27,30)           109.4712         estimate D2E/DX2                !
 ! A53   A(27,30,31)           109.483          estimate D2E/DX2                !
 ! A54   A(27,30,32)           109.4854         estimate D2E/DX2                !
 ! A55   A(27,30,33)           109.4452         estimate D2E/DX2                !
 ! A56   A(31,30,32)           109.4713         estimate D2E/DX2                !
 ! A57   A(31,30,33)           109.4712         estimate D2E/DX2                !
 ! A58   A(32,30,33)           109.4712         estimate D2E/DX2                !
 ! A59   A(30,33,34)           109.5            estimate D2E/DX2                !
 ! A60   A(33,34,35)           109.4712         estimate D2E/DX2                !
 ! A61   A(33,34,36)           109.4712         estimate D2E/DX2                !
 ! A62   A(33,34,37)           109.4712         estimate D2E/DX2                !
 ! A63   A(35,34,36)           109.4712         estimate D2E/DX2                !
 ! A64   A(35,34,37)           109.4713         estimate D2E/DX2                !
 ! A65   A(36,34,37)           109.4712         estimate D2E/DX2                !
 ! A66   A(34,37,38)           109.4712         estimate D2E/DX2                !
 ! A67   A(34,37,39)           109.4712         estimate D2E/DX2                !
 ! A68   A(34,37,40)           109.4712         estimate D2E/DX2                !
 ! A69   A(38,37,39)           109.4712         estimate D2E/DX2                !
 ! A70   A(38,37,40)           109.4713         estimate D2E/DX2                !
 ! A71   A(39,37,40)           109.4712         estimate D2E/DX2                !
 ! A72   A(37,40,41)           109.5            estimate D2E/DX2                !
 ! D1    D(2,1,5,6)            180.0            estimate D2E/DX2                !
 ! D2    D(3,1,5,6)             60.0            estimate D2E/DX2                !
 ! D3    D(4,1,5,6)            -60.0            estimate D2E/DX2                !
 ! D4    D(1,5,6,7)             60.0            estimate D2E/DX2                !
 ! D5    D(1,5,6,8)            -60.0            estimate D2E/DX2                !
 ! D6    D(1,5,6,9)            180.0            estimate D2E/DX2                !
 ! D7    D(5,6,9,10)            60.0            estimate D2E/DX2                !
 ! D8    D(5,6,9,11)           -60.0            estimate D2E/DX2                !
 ! D9    D(5,6,9,12)          -180.0            estimate D2E/DX2                !
 ! D10   D(7,6,9,10)           180.0            estimate D2E/DX2                !
 ! D11   D(7,6,9,11)            60.0            estimate D2E/DX2                !
 ! D12   D(7,6,9,12)           -60.0            estimate D2E/DX2                !
 ! D13   D(8,6,9,10)           -60.0            estimate D2E/DX2                !
 ! D14   D(8,6,9,11)           180.0            estimate D2E/DX2                !
 ! D15   D(8,6,9,12)            60.0            estimate D2E/DX2                !
 ! D16   D(6,9,12,13)          180.0            estimate D2E/DX2                !
 ! D17   D(10,9,12,13)         -60.0            estimate D2E/DX2                !
 ! D18   D(11,9,12,13)          60.0            estimate D2E/DX2                !
 ! D19   D(9,12,13,14)          60.0            estimate D2E/DX2                !
 ! D20   D(9,12,13,15)         -60.0            estimate D2E/DX2                !
 ! D21   D(9,12,13,16)         180.0            estimate D2E/DX2                !
 ! D22   D(12,13,16,17)        -60.0            estimate D2E/DX2                !
 ! D23   D(12,13,16,18)         60.0            estimate D2E/DX2                !
 ! D24   D(12,13,16,19)        180.0            estimate D2E/DX2                !
 ! D25   D(14,13,16,17)         60.0            estimate D2E/DX2                !
 ! D26   D(14,13,16,18)       -180.0            estimate D2E/DX2                !
 ! D27   D(14,13,16,19)        -60.0            estimate D2E/DX2                !
 ! D28   D(15,13,16,17)       -180.0            estimate D2E/DX2                !
 ! D29   D(15,13,16,18)        -60.0            estimate D2E/DX2                !
 ! D30   D(15,13,16,19)         60.0            estimate D2E/DX2                !
 ! D31   D(13,16,19,20)        180.0            estimate D2E/DX2                !
 ! D32   D(17,16,19,20)         60.0            estimate D2E/DX2                !
 ! D33   D(18,16,19,20)        -60.0            estimate D2E/DX2                !
 ! D34   D(16,19,20,21)         60.0            estimate D2E/DX2                !
 ! D35   D(16,19,20,22)        -60.0            estimate D2E/DX2                !
 ! D36   D(16,19,20,23)        180.0            estimate D2E/DX2                !
 ! D37   D(19,20,23,24)         60.0            estimate D2E/DX2                !
 ! D38   D(19,20,23,25)        -60.0            estimate D2E/DX2                !
 ! D39   D(19,20,23,26)       -180.0            estimate D2E/DX2                !
 ! D40   D(21,20,23,24)        180.0            estimate D2E/DX2                !
 ! D41   D(21,20,23,25)         60.0            estimate D2E/DX2                !
 ! D42   D(21,20,23,26)        -60.0            estimate D2E/DX2                !
 ! D43   D(22,20,23,24)        -60.0            estimate D2E/DX2                !
 ! D44   D(22,20,23,25)        180.0            estimate D2E/DX2                !
 ! D45   D(22,20,23,26)         60.0            estimate D2E/DX2                !
 ! D46   D(20,23,26,27)        180.0            estimate D2E/DX2                !
 ! D47   D(24,23,26,27)        -60.0            estimate D2E/DX2                !
 ! D48   D(25,23,26,27)         60.0            estimate D2E/DX2                !
 ! D49   D(23,26,27,28)         60.0001         estimate D2E/DX2                !
 ! D50   D(23,26,27,29)        -59.9999         estimate D2E/DX2                !
 ! D51   D(23,26,27,30)       -179.9999         estimate D2E/DX2                !
 ! D52   D(26,27,30,31)        -60.0182         estimate D2E/DX2                !
 ! D53   D(26,27,30,32)         59.9978         estimate D2E/DX2                !
 ! D54   D(26,27,30,33)        179.9905         estimate D2E/DX2                !
 ! D55   D(28,27,30,31)         59.9818         estimate D2E/DX2                !
 ! D56   D(28,27,30,32)        179.9977         estimate D2E/DX2                !
 ! D57   D(28,27,30,33)        -60.0095         estimate D2E/DX2                !
 ! D58   D(29,27,30,31)        179.9818         estimate D2E/DX2                !
 ! D59   D(29,27,30,32)        -60.0022         estimate D2E/DX2                !
 ! D60   D(29,27,30,33)         59.9905         estimate D2E/DX2                !
 ! D61   D(27,30,33,34)        179.9952         estimate D2E/DX2                !
 ! D62   D(31,30,33,34)         59.9967         estimate D2E/DX2                !
 ! D63   D(32,30,33,34)        -60.0033         estimate D2E/DX2                !
 ! D64   D(30,33,34,35)         59.9982         estimate D2E/DX2                !
 ! D65   D(30,33,34,36)        -60.0018         estimate D2E/DX2                !
 ! D66   D(30,33,34,37)        179.9982         estimate D2E/DX2                !
 ! D67   D(33,34,37,38)         59.9999         estimate D2E/DX2                !
 ! D68   D(33,34,37,39)        -60.0001         estimate D2E/DX2                !
 ! D69   D(33,34,37,40)        179.9999         estimate D2E/DX2                !
 ! D70   D(35,34,37,38)        179.9999         estimate D2E/DX2                !
 ! D71   D(35,34,37,39)         59.9999         estimate D2E/DX2                !
 ! D72   D(35,34,37,40)        -60.0001         estimate D2E/DX2                !
 ! D73   D(36,34,37,38)        -60.0001         estimate D2E/DX2                !
 ! D74   D(36,34,37,39)        179.9999         estimate D2E/DX2                !
 ! D75   D(36,34,37,40)         59.9999         estimate D2E/DX2                !
 ! D76   D(34,37,40,41)       -179.999          estimate D2E/DX2                !
 ! D77   D(38,37,40,41)        -59.9991         estimate D2E/DX2                !
 ! D78   D(39,37,40,41)         60.001          estimate D2E/DX2                !
 --------------------------------------------------------------------------------
 Trust Radius=3.00D-01 FncErr=1.00D-07 GrdErr=1.00D-07
 Number of steps in this run= 200 maximum allowed number of steps= 246.
 GradGradGradGradGradGradGradGradGradGradGradGradGradGradGradGradGradGrad

                          Input orientation:                          
 ---------------------------------------------------------------------
 Center     Atomic      Atomic             Coordinates (Angstroms)
 Number     Number       Type             X           Y           Z
 ---------------------------------------------------------------------
      1          6           0       -3.870968    1.009786   -0.000362
      2          1           0       -3.514556    0.000890   -0.000580
      3          1           0       -3.512821    1.514765   -0.873075
      4          1           0       -4.940967    1.010057   -0.002020
      5          8           0       -3.395941    1.682883    1.168479
      6          6           0       -3.872267    3.031220    1.168770
      7          1           0       -4.942266    3.031491    1.167112
      8          1           0       -3.514120    3.536199    0.296057
      9          6           0       -3.360700    3.756093    2.427522
     10          1           0       -2.290702    3.755822    2.429180
     11          1           0       -3.718847    3.251114    3.300234
     12          8           0       -3.837026    5.104430    2.427813
     13          6           0       -3.362000    5.777527    3.596654
     14          1           0       -2.292001    5.777256    3.598312
     15          1           0       -3.720147    5.272548    4.469366
     16          6           0       -3.874966    7.229583    3.596967
     17          1           0       -3.516819    7.734561    2.724255
     18          1           0       -4.944965    7.229854    3.595309
     19          8           0       -3.399939    7.902679    4.765808
     20          6           0       -3.876266    9.251017    4.766099
     21          1           0       -4.946264    9.251288    4.764441
     22          1           0       -3.518118    9.755995    3.893387
     23          6           0       -3.364698    9.975890    6.024851
     24          1           0       -2.294700    9.975619    6.026509
     25          1           0       -3.722846    9.470911    6.897564
     26          8           0       -3.841024   11.324227    6.025142
     27          6           0       -3.365998   11.997324    7.193983
     28          1           0       -2.295999   11.997054    7.195640
     29          1           0       -3.724143   11.492344    8.066696
     30          6           0       -3.878967   13.449378    7.194297
     31          1           0       -3.520664   13.954634    6.321809
     32          1           0       -4.948966   13.449912    7.192601
     33          8           0       -3.403818   14.121870    8.363437
     34          6           0       -3.879412   15.470465    8.364858
     35          1           0       -4.949411   15.471318    8.363256
     36          1           0       -3.521037   15.975965    7.492541
     37          6           0       -3.367386   16.194029    9.624177
     38          1           0       -2.297387   16.193174    9.625779
     39          1           0       -3.725762   15.688530   10.496494
     40          8           0       -3.842979   17.542624    9.625597
     41          1           0       -3.524008   17.994083   10.410481
 ---------------------------------------------------------------------
                    Distance matrix (angstroms):
                    1          2          3          4          5
     1  C    0.000000
     2  H    1.070000   0.000000
     3  H    1.070000   1.747303   0.000000
     4  H    1.070000   1.747303   1.747303   0.000000
     5  O    1.430000   2.051796   2.051796   2.051796   0.000000
     6  C    2.335180   3.267757   2.568651   2.568651   1.430000
     7  H    2.568651   3.547732   2.916528   2.335180   2.051796
     8  H    2.568651   3.547732   2.335180   2.916528   2.051796
     9  C    3.700973   4.474472   3.992572   3.992572   2.425826
    10  H    3.992572   4.636924   4.173823   4.524806   2.666083
    11  H    3.992572   4.636924   4.524806   4.173823   2.666083
    12  O    4.760599   5.661025   4.887399   4.887399   3.672529
    13  C    5.994075   6.806827   6.178379   6.178379   4.760599
    14  H    6.178379   6.914699   6.297026   6.534952   4.887399
    15  H    6.178379   6.914699   6.534952   6.297026   4.887399
    16  C    7.185170   8.082465   7.264404   7.264404   6.073953
    17  H    7.264404   8.199659   7.185170   7.394575   6.249629
    18  H    7.264404   8.199659   7.394575   7.185170   6.249629
    19  O    8.393464   9.228752   8.521455   8.521455   7.185170
    20  C    9.520350  10.412344   9.580291   9.580291   8.393464
    21  H    9.580291  10.503574   9.679366   9.520350   8.521455
    22  H    9.580291  10.503574   9.520350   9.679366   8.521455
    23  C   10.814367  11.654566  10.917599  10.917599   9.610375
    24  H   10.917599  11.717895  10.985178  11.123273   9.673813
    25  H   10.917599  11.717895  11.123273  10.985178   9.673813
    26  O   11.945514  12.830973  11.996611  11.996611  10.804666
    27  C   13.143044  13.989218  13.228115  13.228115  11.945514
    28  H   13.228116  14.042023  13.283946  13.398369  11.996611
    29  H   13.228114  14.042022  13.398367  13.283945  11.996610
    30  C   14.370340  15.256503  14.410120  14.410120  13.228538
    31  H   14.410470  15.319256  14.370691  14.476538  13.310456
    32  H   14.410328  15.319125  14.476374  14.370548  13.310332
    33  O   15.559503  16.412530  15.628952  15.628927  14.369965
    34  C   16.705934  17.590379  16.740232  16.740220  15.560175
    35  H   16.740641  17.645019  16.797588  16.706465  15.630068
    36  H   16.740746  17.645110  16.706583  16.797710  15.630151
    37  C   17.984621  18.838135  18.047001  18.046962  16.795029
    38  H   18.046441  18.876926  18.087535  18.171683  16.830963
    39  H   18.046346  18.876843  18.171628  18.087374  16.830888
    40  O   19.130986  20.012085  19.163073  19.163047  17.979268
    41  H   19.924166  20.788104  19.972148  19.972108  18.747967
                    6          7          8          9         10
     6  C    0.000000
     7  H    1.070000   0.000000
     8  H    1.070000   1.747303   0.000000
     9  C    1.540000   2.148263   2.148263   0.000000
    10  H    2.148263   3.024610   2.468846   1.070000   0.000000
    11  H    2.148263   2.468846   3.024610   1.070000   1.747303
    12  O    2.425826   2.666083   2.666083   1.430000   2.051796
    13  C    3.700973   3.992572   3.992572   2.335180   2.568651
    14  H    3.992572   4.524806   4.173823   2.568651   2.335180
    15  H    3.992572   4.173823   4.524806   2.568651   2.916528
    16  C    4.849990   4.966619   4.966619   3.700973   3.992572
    17  H    4.966619   5.155140   4.849990   3.992572   4.173823
    18  H    4.966619   4.849990   5.155140   3.992572   4.524806
    19  O    6.073953   6.249629   6.249629   4.760599   4.887399
    20  C    7.185170   7.264404   7.264404   5.994075   6.178379
    21  H    7.264404   7.185170   7.394575   6.178379   6.534952
    22  H    7.264404   7.394575   7.185170   6.178379   6.297026
    23  C    8.489264   8.620385   8.620385   7.185170   7.264404
    24  H    8.620385   8.879429   8.705814   7.264404   7.185170
    25  H    8.620385   8.705814   8.879429   7.264404   7.394575
    26  O    9.610375   9.673813   9.673813   8.393464   8.521455
    27  C   10.814367  10.917599  10.917599   9.520350   9.580291
    28  H   10.917600  11.123273  10.985178   9.580291   9.520351
    29  H   10.917598  10.985177  11.123272   9.580290   9.679365
    30  C   12.035159  12.082630  12.082631  10.814367  10.917599
    31  H   12.082980  12.161698  12.035511  10.917934  10.985496
    32  H   12.082838  12.035368  12.161530  10.917816  11.123486
    33  O   13.228198  13.309787  13.309817  11.945136  11.996224
    34  C   14.370754  14.410596  14.410611  13.143345  13.228346
    35  H   14.411000  14.371285  14.477114  13.228886  13.399061
    36  H   14.411102  14.477236  14.371403  13.228960  13.284699
    37  C   15.652743  15.724331  15.724376  14.369903  14.409588
    38  H   15.723813  15.867399  15.770960  14.409251  14.369370
    39  H   15.723721  15.770792  15.867352  14.409185  14.475167
    40  O   16.795822  16.832331  16.832362  15.559990  15.629264
    41  H   17.590275  17.644560  17.644605  16.324051  16.369187
                   11         12         13         14         15
    11  H    0.000000
    12  O    2.051796   0.000000
    13  C    2.568651   1.430000   0.000000
    14  H    2.916528   2.051796   1.070000   0.000000
    15  H    2.335180   2.051796   1.070000   1.747303   0.000000
    16  C    3.992572   2.425826   1.540000   2.148263   2.148263
    17  H    4.524806   2.666083   2.148263   2.468846   3.024610
    18  H    4.173823   2.666083   2.148263   3.024610   2.468846
    19  O    4.887399   3.672529   2.425826   2.666083   2.666083
    20  C    6.178379   4.760599   3.700973   3.992572   3.992572
    21  H    6.297026   4.887399   3.992572   4.524806   4.173823
    22  H    6.534952   4.887399   3.992572   4.173823   4.524806
    23  C    7.264404   6.073953   4.849990   4.966619   4.966619
    24  H    7.394575   6.249629   4.966619   4.849990   5.155140
    25  H    7.185170   6.249629   4.966619   5.155140   4.849990
    26  O    8.521455   7.185170   6.073953   6.249629   6.249629
    27  C    9.580291   8.393464   7.185170   7.264404   7.264404
    28  H    9.679367   8.521456   7.264405   7.185171   7.394576
    29  H    9.520349   8.521455   7.264403   7.394573   7.185169
    30  C   10.917598   9.610374   8.489264   8.620385   8.620384
    31  H   11.123602   9.674161   8.620714   8.706122   8.879749
    32  H   10.985408   9.674021   8.620603   8.879641   8.706049
    33  O   11.996191  10.804329   9.609997   9.673425   9.673384
    34  C   13.228330  11.945919  10.814644  10.917790  10.917771
    35  H   13.284647  11.997468  10.918331  11.123909  10.985826
    36  H   13.399119  11.997566  10.918396  10.985864  11.123954
    37  C   14.409539  13.228281  12.034723  12.082080  12.082022
    38  H   14.475150  13.309449  12.081782  12.034190  12.160300
    39  H   14.369255  13.309364  12.081725  12.160343  12.034075
    40  O   15.629231  14.370692  13.228643  13.310055  13.310017
    41  H   16.369138  15.164568  13.989236  14.041878  14.041822
                   16         17         18         19         20
    16  C    0.000000
    17  H    1.070000   0.000000
    18  H    1.070000   1.747303   0.000000
    19  O    1.430000   2.051796   2.051796   0.000000
    20  C    2.335180   2.568651   2.568651   1.430000   0.000000
    21  H    2.568651   2.916528   2.335180   2.051796   1.070000
    22  H    2.568651   2.335180   2.916528   2.051796   1.070000
    23  C    3.700973   3.992572   3.992572   2.425826   1.540000
    24  H    3.992572   4.173823   4.524806   2.666083   2.148263
    25  H    3.992572   4.524806   4.173823   2.666083   2.148263
    26  O    4.760599   4.887399   4.887399   3.672529   2.425826
    27  C    5.994075   6.178379   6.178379   4.760599   3.700973
    28  H    6.178379   6.297026   6.534953   4.887399   3.992573
    29  H    6.178378   6.534952   6.297025   4.887398   3.992572
    30  C    7.185170   7.264404   7.264403   6.073952   4.849989
    31  H    7.264751   7.185521   7.394937   6.249949   4.966961
    32  H    7.264610   7.394755   7.185378   6.249848   4.966822
    33  O    8.393143   8.521201   8.521155   7.184795   6.073653
    34  C    9.520764   9.580819   9.580797   8.393714   7.185584
    35  H    9.581135   9.680292   9.521296   8.522135   7.265213
    36  H    9.581230   9.521413   9.680416   8.522187   7.265301
    37  C   10.814166  10.917593  10.917529   9.609957   8.489128
    38  H   10.917019  10.984816  11.122830   9.673016   8.619913
    39  H   10.916937  11.122813  10.984626   9.672972   8.619841
    40  O   11.945887  11.997208  11.997165  10.804738   9.610753
    41  H   12.744474  12.819357  12.819295  11.563483  10.412701
                   21         22         23         24         25
    21  H    0.000000
    22  H    1.747303   0.000000
    23  C    2.148263   2.148263   0.000000
    24  H    3.024610   2.468846   1.070000   0.000000
    25  H    2.468846   3.024610   1.070000   1.747303   0.000000
    26  O    2.666083   2.666083   1.430000   2.051796   2.051796
    27  C    3.992572   3.992572   2.335180   2.568651   2.568651
    28  H    4.524806   4.173823   2.568651   2.335181   2.916529
    29  H    4.173823   4.524805   2.568650   2.916526   2.335179
    30  C    4.966618   4.966619   3.700973   3.992573   3.992571
    31  H    5.155501   4.850341   3.992857   4.174057   4.525057
    32  H    4.850198   5.155305   3.992790   4.524999   4.174071
    33  O    6.249359   6.249422   4.760217   4.887001   4.886920
    34  C    7.264939   7.264967   5.994240   6.178392   6.178358
    35  H    7.186115   7.395488   6.178930   6.535333   6.297428
    36  H    7.395613   7.186233   6.178953   6.297405   6.535323
    37  C    8.620414   8.620496   7.184734   7.263779   7.263682
    38  H    8.879130   8.705617   7.263639   7.184201   7.393505
    39  H    8.705409   8.879139   7.263622   7.393650   7.184086
    40  O    9.674416   9.674469   8.393425   8.521160   8.521100
    41  H   10.504144  10.504220   9.140599   9.220964   9.220877
                   26         27         28         29         30
    26  O    0.000000
    27  C    1.430000   0.000000
    28  H    2.051796   1.070000   0.000000
    29  H    2.051796   1.070000   1.747303   0.000000
    30  C    2.425826   1.540000   2.148263   2.148263   0.000000
    31  H    2.666398   2.148411   2.468907   3.024716   1.070000
    32  H    2.666277   2.148442   3.024738   2.469070   1.070000
    33  O    3.672272   2.425438   2.665681   2.665534   1.430000
    34  C    4.760991   3.700980   3.992349   3.992300   2.335595
    35  H    4.888114   3.992872   4.524867   4.173902   2.569154
    36  H    4.888181   3.992838   4.173799   4.524794   2.569183
    37  C    6.073908   4.849554   4.965909   4.965769   3.701234
    38  H    6.249324   4.965956   4.849020   5.154045   3.992732
    39  H    6.249273   4.965985   5.154304   4.848907   3.992715
    40  O    7.185523   6.073764   6.249094   6.249014   4.761005
    41  H    7.988659   6.806757   6.914301   6.914188   5.578904
                   31         32         33         34         35
    31  H    0.000000
    32  H    1.747303   0.000000
    33  O    2.051796   2.051796   0.000000
    34  C    2.569143   2.569195   1.430000   0.000000
    35  H    2.917045   2.335918   2.051796   1.070000   0.000000
    36  H    2.335892   2.917171   2.051796   1.070000   1.747303
    37  C    3.992996   3.993010   2.425826   1.540000   2.148263
    38  H    4.174169   4.525119   2.666082   2.148263   3.024610
    39  H    4.525092   4.174128   2.666084   2.148263   2.468846
    40  O    4.888003   4.888043   3.672528   2.425826   2.666084
    41  H    5.747556   5.747585   4.381651   3.267955   3.547851
                   36         37         38         39         40
    36  H    0.000000
    37  C    2.148263   0.000000
    38  H    2.468846   1.070000   0.000000
    39  H    3.024610   1.070000   1.747303   0.000000
    40  O    2.666082   1.430000   2.051796   2.051796   0.000000
    41  H    3.547842   1.970533   2.315951   2.315962   0.960000
                   41
    41  H    0.000000
 Symmetry turned off by external request.
 Stoichiometry    C11H24O6
 Framework group  C1[X(C11H24O6)]
 Deg. of freedom   117
 Full point group                 C1      NOp   1
 Rotational constants (GHZ):      6.1796170      0.0568894      0.0565841
 Standard basis: 6-31G(d) (6D, 7F)
 Integral buffers will be    131072 words long.
 Raffenetti 1 integral format.
 Two-electron integral symmetry is turned off.
   303 basis functions,   572 primitive gaussians,   303 cartesian basis functions
    69 alpha electrons       69 beta electrons
       nuclear repulsion energy      1136.1518948250 Hartrees.
 NAtoms=   41 NActive=   41 NUniq=   41 SFac= 7.50D-01 NAtFMM=   80 NAOKFM=F Big=F
 One-electron integrals computed using PRISM.
 NBasis=   303 RedAO= T  NBF=   303
 NBsUse=   303 1.00D-06 NBFU=   303
 Harris functional with IExCor=  205 diagonalized for initial guess.
 ExpMin= 1.61D-01 ExpMax= 5.48D+03 ExpMxC= 8.25D+02 IAcc=1 IRadAn=         1 AccDes= 0.00D+00
 HarFok:  IExCor=  205 AccDes= 0.00D+00 IRadAn=         1 IDoV= 1
 ScaDFX=  1.000000  1.000000  1.000000  1.000000
 FoFCou: FMM=F IPFlag=           0 FMFlag=      100000 FMFlg1=           0
         NFxFlg=           0 DoJE=T BraDBF=F KetDBF=T FulRan=T
         Omega=  0.000000  0.000000  1.000000  0.000000  0.000000 ICntrl=     500 IOpCl=  0
         NMat0=    1 NMatS0=    1 NMatT0=    0 NMatD0=    1 NMtDS0=    0 NMtDT0=    0
         I1Cent=           4 NGrid=           0.
 Symmetry not used in FoFCou.
 Requested convergence on RMS density matrix=1.00D-08 within 128 cycles.
 Requested convergence on MAX density matrix=1.00D-06.
 Requested convergence on             energy=1.00D-06.
 No special actions if energy rises.
 Integral accuracy reduced to 1.0D-05 until final iterations.
 Initial convergence to 1.0D-05 achieved.  Increase integral accuracy.
 SCF Done:  E(RHF) =  -879.590366958     A.U. after   12 cycles
             Convg  =    0.4205D-08             -V/T =  2.0017

 **********************************************************************

            Population analysis using the SCF density.

 **********************************************************************

 Alpha  occ. eigenvalues --  -20.56549 -20.56534 -20.56502 -20.56429 -20.56046
 Alpha  occ. eigenvalues --  -20.56043 -11.27304 -11.27295 -11.27292 -11.27259
 Alpha  occ. eigenvalues --  -11.27246 -11.27229 -11.27188 -11.27187 -11.27092
 Alpha  occ. eigenvalues --  -11.26967 -11.26547  -1.37821  -1.37410  -1.36883
 Alpha  occ. eigenvalues --   -1.36345  -1.35902  -1.35178  -1.05015  -1.03295
 Alpha  occ. eigenvalues --   -1.00755  -0.97673  -0.94529  -0.91135  -0.84694
 Alpha  occ. eigenvalues --   -0.84357  -0.84268  -0.83855  -0.83780  -0.70748
 Alpha  occ. eigenvalues --   -0.69980  -0.69914  -0.68639  -0.67712  -0.66935
 Alpha  occ. eigenvalues --   -0.65678  -0.65009  -0.64849  -0.63549  -0.62836
 Alpha  occ. eigenvalues --   -0.62531  -0.60845  -0.60090  -0.59838  -0.59056
 Alpha  occ. eigenvalues --   -0.57196  -0.56608  -0.54661  -0.53627  -0.52470
 Alpha  occ. eigenvalues --   -0.51981  -0.50961  -0.49579  -0.47417  -0.47256
 Alpha  occ. eigenvalues --   -0.47250  -0.47114  -0.46899  -0.44709  -0.42923
 Alpha  occ. eigenvalues --   -0.42887  -0.42827  -0.42773  -0.42563
 Alpha virt. eigenvalues --    0.21658   0.23155   0.23387   0.23717   0.24014
 Alpha virt. eigenvalues --    0.24171   0.28248   0.28310   0.29027   0.29182
 Alpha virt. eigenvalues --    0.29576   0.29868   0.30537   0.31242   0.32138
 Alpha virt. eigenvalues --    0.32186   0.32625   0.33748   0.33913   0.35420
 Alpha virt. eigenvalues --    0.35454   0.36168   0.36612   0.36752   0.37349
 Alpha virt. eigenvalues --    0.37426   0.37535   0.37670   0.37721   0.39642
 Alpha virt. eigenvalues --    0.40434   0.41588   0.42083   0.43351   0.43771
 Alpha virt. eigenvalues --    0.45475   0.45968   0.46238   0.51104   0.56415
 Alpha virt. eigenvalues --    0.67275   0.70583   0.73529   0.75712   0.75941
 Alpha virt. eigenvalues --    0.76028   0.76724   0.77587   0.78406   0.78407
 Alpha virt. eigenvalues --    0.78635   0.78946   0.79553   0.81039   0.81441
 Alpha virt. eigenvalues --    0.81854   0.82458   0.83060   0.83138   0.86545
 Alpha virt. eigenvalues --    0.88807   0.91496   0.91903   0.93915   0.95106
 Alpha virt. eigenvalues --    0.96807   0.99805   1.00097   1.00549   1.01306
 Alpha virt. eigenvalues --    1.01726   1.02288   1.02891   1.06169   1.07709
 Alpha virt. eigenvalues --    1.08482   1.10826   1.11580   1.11871   1.12577
 Alpha virt. eigenvalues --    1.13724   1.14811   1.14863   1.15848   1.17657
 Alpha virt. eigenvalues --    1.19039   1.19130   1.19567   1.19754   1.19943
 Alpha virt. eigenvalues --    1.20175   1.20447   1.20481   1.20607   1.21488
 Alpha virt. eigenvalues --    1.21502   1.22182   1.23377   1.24915   1.25950
 Alpha virt. eigenvalues --    1.26627   1.26944   1.27511   1.29552   1.30026
 Alpha virt. eigenvalues --    1.32187   1.36749   1.39832   1.40622   1.41069
 Alpha virt. eigenvalues --    1.42466   1.43252   1.45072   1.47301   1.47822
 Alpha virt. eigenvalues --    1.52916   1.56240   1.60254   1.62823   1.65171
 Alpha virt. eigenvalues --    1.65794   1.66240   1.66326   1.66991   1.67946
 Alpha virt. eigenvalues --    1.68297   1.69450   1.69701   1.69858   1.72022
 Alpha virt. eigenvalues --    1.72665   1.74715   1.76445   1.79041   1.80022
 Alpha virt. eigenvalues --    1.81242   1.81398   1.83377   1.87754   1.91486
 Alpha virt. eigenvalues --    1.99304   2.03699   2.06519   2.11733   2.12336
 Alpha virt. eigenvalues --    2.12607   2.12842   2.13240   2.14142   2.15161
 Alpha virt. eigenvalues --    2.15163   2.15979   2.17817   2.18934   2.21469
 Alpha virt. eigenvalues --    2.27282   2.29084   2.31404   2.33205   2.34467
 Alpha virt. eigenvalues --    2.34985   2.35989   2.36691   2.37311   2.38419
 Alpha virt. eigenvalues --    2.39686   2.39734   2.41515   2.41776   2.43925
 Alpha virt. eigenvalues --    2.44708   2.47376   2.47982   2.48253   2.48826
 Alpha virt. eigenvalues --    2.49691   2.50788   2.51916   2.52707   2.55079
 Alpha virt. eigenvalues --    2.56593   2.57831   2.58793   2.62068   2.62952
 Alpha virt. eigenvalues --    2.64199   2.66511   2.67092   2.70100   2.72577
 Alpha virt. eigenvalues --    2.73404   2.74968   2.81522   2.84141   2.85406
 Alpha virt. eigenvalues --    2.85494   2.86366   2.86868   2.86941   2.91139
 Alpha virt. eigenvalues --    2.93023   3.00381   3.02635   3.03547   3.04449
 Alpha virt. eigenvalues --    3.05483   3.06141   3.06885   3.09988   3.11189
 Alpha virt. eigenvalues --    3.16083   3.25146   3.34335   3.38693   3.41079
 Alpha virt. eigenvalues --    3.43452   3.43860   4.12889   4.23587   4.31441
 Alpha virt. eigenvalues --    4.42243   4.52634   4.60104   4.64463   4.65526
 Alpha virt. eigenvalues --    4.65864   4.66311   4.66421   4.68645   4.83098
 Alpha virt. eigenvalues --    4.85300   4.88415   4.91560   4.93896
          Condensed to atoms (all electrons):
              1          2          3          4          5          6
     1  C    4.819022   0.402279   0.393634   0.393634   0.215677  -0.054840
     2  H    0.402279   0.499588  -0.030167  -0.030167  -0.028500   0.005038
     3  H    0.393634  -0.030167   0.570714  -0.043971  -0.039805  -0.007218
     4  H    0.393634  -0.030167  -0.043971   0.570714  -0.039805  -0.007218
     5  O    0.215677  -0.028500  -0.039805  -0.039805   8.440186   0.204243
     6  C   -0.054840   0.005038  -0.007218  -0.007218   0.204243   4.786222
     7  H   -0.005630  -0.000108  -0.001323   0.007714  -0.039438   0.392282
     8  H   -0.005630  -0.000108   0.007714  -0.001323  -0.039438   0.392282
     9  C    0.004470  -0.000082  -0.000147  -0.000147  -0.037164   0.391539
    10  H   -0.000172   0.000004  -0.000014   0.000018   0.003691  -0.038995
    11  H   -0.000172   0.000004   0.000018  -0.000014   0.003691  -0.038995
    12  O   -0.000042   0.000000   0.000001   0.000001   0.000731  -0.036827
    13  C    0.000002   0.000000   0.000000   0.000000  -0.000037   0.004333
    14  H    0.000000   0.000000   0.000000   0.000000   0.000001  -0.000077
    15  H    0.000000   0.000000   0.000000   0.000000   0.000001  -0.000077
    16  C    0.000000   0.000000   0.000000   0.000000   0.000000  -0.000079
    17  H    0.000000   0.000000   0.000000   0.000000   0.000000   0.000003
    18  H    0.000000   0.000000   0.000000   0.000000   0.000000   0.000003
    19  O    0.000000   0.000000   0.000000   0.000000   0.000000   0.000000
    20  C    0.000000   0.000000   0.000000   0.000000   0.000000   0.000000
    21  H    0.000000   0.000000   0.000000   0.000000   0.000000   0.000000
    22  H    0.000000   0.000000   0.000000   0.000000   0.000000   0.000000
    23  C    0.000000   0.000000   0.000000   0.000000   0.000000   0.000000
    24  H    0.000000   0.000000   0.000000   0.000000   0.000000   0.000000
    25  H    0.000000   0.000000   0.000000   0.000000   0.000000   0.000000
    26  O    0.000000   0.000000   0.000000   0.000000   0.000000   0.000000
    27  C    0.000000   0.000000   0.000000   0.000000   0.000000   0.000000
    28  H    0.000000   0.000000   0.000000   0.000000   0.000000   0.000000
    29  H    0.000000   0.000000   0.000000   0.000000   0.000000   0.000000
    30  C    0.000000   0.000000   0.000000   0.000000   0.000000   0.000000
    31  H    0.000000   0.000000   0.000000   0.000000   0.000000   0.000000
    32  H    0.000000   0.000000   0.000000   0.000000   0.000000   0.000000
    33  O    0.000000   0.000000   0.000000   0.000000   0.000000   0.000000
    34  C    0.000000   0.000000   0.000000   0.000000   0.000000   0.000000
    35  H    0.000000   0.000000   0.000000   0.000000   0.000000   0.000000
    36  H    0.000000   0.000000   0.000000   0.000000   0.000000   0.000000
    37  C    0.000000   0.000000   0.000000   0.000000   0.000000   0.000000
    38  H    0.000000   0.000000   0.000000   0.000000   0.000000   0.000000
    39  H    0.000000   0.000000   0.000000   0.000000   0.000000   0.000000
    40  O    0.000000   0.000000   0.000000   0.000000   0.000000   0.000000
    41  H    0.000000   0.000000   0.000000   0.000000   0.000000   0.000000
              7          8          9         10         11         12
     1  C   -0.005630  -0.005630   0.004470  -0.000172  -0.000172  -0.000042
     2  H   -0.000108  -0.000108  -0.000082   0.000004   0.000004   0.000000
     3  H   -0.001323   0.007714  -0.000147  -0.000014   0.000018   0.000001
     4  H    0.007714  -0.001323  -0.000147   0.000018  -0.000014   0.000001
     5  O   -0.039438  -0.039438  -0.037164   0.003691   0.003691   0.000731
     6  C    0.392282   0.392282   0.391539  -0.038995  -0.038995  -0.036827
     7  H    0.571222  -0.045614  -0.039734   0.005285  -0.006201   0.003688
     8  H   -0.045614   0.571222  -0.039734  -0.006201   0.005285   0.003688
     9  C   -0.039734  -0.039734   4.784659   0.393463   0.393463   0.195711
    10  H    0.005285  -0.006201   0.393463   0.564379  -0.044444  -0.038683
    11  H   -0.006201   0.005285   0.393463  -0.044444   0.564379  -0.038683
    12  O    0.003688   0.003688   0.195711  -0.038683  -0.038683   8.488764
    13  C   -0.000183  -0.000183  -0.048648  -0.006196  -0.006196   0.197442
    14  H    0.000016  -0.000011  -0.006111   0.007278  -0.001327  -0.038705
    15  H   -0.000011   0.000016  -0.006111  -0.001327   0.007278  -0.038705
    16  C    0.000003   0.000003   0.004325  -0.000073  -0.000073  -0.036768
    17  H    0.000000   0.000001  -0.000180  -0.000012   0.000016   0.003687
    18  H    0.000001   0.000000  -0.000180   0.000016  -0.000012   0.003687
    19  O    0.000000   0.000000  -0.000037   0.000001   0.000001   0.000731
    20  C    0.000000   0.000000   0.000002   0.000000   0.000000  -0.000037
    21  H    0.000000   0.000000   0.000000   0.000000   0.000000   0.000001
    22  H    0.000000   0.000000   0.000000   0.000000   0.000000   0.000001
    23  C    0.000000   0.000000   0.000000   0.000000   0.000000   0.000000
    24  H    0.000000   0.000000   0.000000   0.000000   0.000000   0.000000
    25  H    0.000000   0.000000   0.000000   0.000000   0.000000   0.000000
    26  O    0.000000   0.000000   0.000000   0.000000   0.000000   0.000000
    27  C    0.000000   0.000000   0.000000   0.000000   0.000000   0.000000
    28  H    0.000000   0.000000   0.000000   0.000000   0.000000   0.000000
    29  H    0.000000   0.000000   0.000000   0.000000   0.000000   0.000000
    30  C    0.000000   0.000000   0.000000   0.000000   0.000000   0.000000
    31  H    0.000000   0.000000   0.000000   0.000000   0.000000   0.000000
    32  H    0.000000   0.000000   0.000000   0.000000   0.000000   0.000000
    33  O    0.000000   0.000000   0.000000   0.000000   0.000000   0.000000
    34  C    0.000000   0.000000   0.000000   0.000000   0.000000   0.000000
    35  H    0.000000   0.000000   0.000000   0.000000   0.000000   0.000000
    36  H    0.000000   0.000000   0.000000   0.000000   0.000000   0.000000
    37  C    0.000000   0.000000   0.000000   0.000000   0.000000   0.000000
    38  H    0.000000   0.000000   0.000000   0.000000   0.000000   0.000000
    39  H    0.000000   0.000000   0.000000   0.000000   0.000000   0.000000
    40  O    0.000000   0.000000   0.000000   0.000000   0.000000   0.000000
    41  H    0.000000   0.000000   0.000000   0.000000   0.000000   0.000000
             13         14         15         16         17         18
     1  C    0.000002   0.000000   0.000000   0.000000   0.000000   0.000000
     2  H    0.000000   0.000000   0.000000   0.000000   0.000000   0.000000
     3  H    0.000000   0.000000   0.000000   0.000000   0.000000   0.000000
     4  H    0.000000   0.000000   0.000000   0.000000   0.000000   0.000000
     5  O   -0.000037   0.000001   0.000001   0.000000   0.000000   0.000000
     6  C    0.004333  -0.000077  -0.000077  -0.000079   0.000003   0.000003
     7  H   -0.000183   0.000016  -0.000011   0.000003   0.000000   0.000001
     8  H   -0.000183  -0.000011   0.000016   0.000003   0.000001   0.000000
     9  C   -0.048648  -0.006111  -0.006111   0.004325  -0.000180  -0.000180
    10  H   -0.006196   0.007278  -0.001327  -0.000073  -0.000012   0.000016
    11  H   -0.006196  -0.001327   0.007278  -0.000073   0.000016  -0.000012
    12  O    0.197442  -0.038705  -0.038705  -0.036768   0.003687   0.003687
    13  C    4.780224   0.393411   0.393411   0.392045  -0.039179  -0.039179
    14  H    0.393411   0.565229  -0.044583  -0.039293  -0.006147   0.005253
    15  H    0.393411  -0.044583   0.565229  -0.039293   0.005253  -0.006147
    16  C    0.392045  -0.039293  -0.039293   4.781846   0.393318   0.393318
    17  H   -0.039179  -0.006147   0.005253   0.393318   0.565411  -0.044630
    18  H   -0.039179   0.005253  -0.006147   0.393318  -0.044630   0.565411
    19  O   -0.036689   0.003673   0.003673   0.196756  -0.038675  -0.038675
    20  C    0.004323  -0.000182  -0.000182  -0.048656  -0.006183  -0.006183
    21  H   -0.000075   0.000016  -0.000012  -0.006159  -0.001328   0.007281
    22  H   -0.000075  -0.000012   0.000016  -0.006159   0.007281  -0.001328
    23  C   -0.000078   0.000003   0.000003   0.004325  -0.000074  -0.000074
    24  H    0.000003   0.000001   0.000000  -0.000181  -0.000012   0.000016
    25  H    0.000003   0.000000   0.000001  -0.000181   0.000016  -0.000012
    26  O    0.000000   0.000000   0.000000  -0.000037   0.000001   0.000001
    27  C    0.000000   0.000000   0.000000   0.000002   0.000000   0.000000
    28  H    0.000000   0.000000   0.000000   0.000000   0.000000   0.000000
    29  H    0.000000   0.000000   0.000000   0.000000   0.000000   0.000000
    30  C    0.000000   0.000000   0.000000   0.000000   0.000000   0.000000
    31  H    0.000000   0.000000   0.000000   0.000000   0.000000   0.000000
    32  H    0.000000   0.000000   0.000000   0.000000   0.000000   0.000000
    33  O    0.000000   0.000000   0.000000   0.000000   0.000000   0.000000
    34  C    0.000000   0.000000   0.000000   0.000000   0.000000   0.000000
    35  H    0.000000   0.000000   0.000000   0.000000   0.000000   0.000000
    36  H    0.000000   0.000000   0.000000   0.000000   0.000000   0.000000
    37  C    0.000000   0.000000   0.000000   0.000000   0.000000   0.000000
    38  H    0.000000   0.000000   0.000000   0.000000   0.000000   0.000000
    39  H    0.000000   0.000000   0.000000   0.000000   0.000000   0.000000
    40  O    0.000000   0.000000   0.000000   0.000000   0.000000   0.000000
    41  H    0.000000   0.000000   0.000000   0.000000   0.000000   0.000000
             19         20         21         22         23         24
     1  C    0.000000   0.000000   0.000000   0.000000   0.000000   0.000000
     2  H    0.000000   0.000000   0.000000   0.000000   0.000000   0.000000
     3  H    0.000000   0.000000   0.000000   0.000000   0.000000   0.000000
     4  H    0.000000   0.000000   0.000000   0.000000   0.000000   0.000000
     5  O    0.000000   0.000000   0.000000   0.000000   0.000000   0.000000
     6  C    0.000000   0.000000   0.000000   0.000000   0.000000   0.000000
     7  H    0.000000   0.000000   0.000000   0.000000   0.000000   0.000000
     8  H    0.000000   0.000000   0.000000   0.000000   0.000000   0.000000
     9  C   -0.000037   0.000002   0.000000   0.000000   0.000000   0.000000
    10  H    0.000001   0.000000   0.000000   0.000000   0.000000   0.000000
    11  H    0.000001   0.000000   0.000000   0.000000   0.000000   0.000000
    12  O    0.000731  -0.000037   0.000001   0.000001   0.000000   0.000000
    13  C   -0.036689   0.004323  -0.000075  -0.000075  -0.000078   0.000003
    14  H    0.003673  -0.000182   0.000016  -0.000012   0.000003   0.000001
    15  H    0.003673  -0.000182  -0.000012   0.000016   0.000003   0.000000
    16  C    0.196756  -0.048656  -0.006159  -0.006159   0.004325  -0.000181
    17  H   -0.038675  -0.006183  -0.001328   0.007281  -0.000074  -0.000012
    18  H   -0.038675  -0.006183   0.007281  -0.001328  -0.000074   0.000016
    19  O    8.487597   0.197019  -0.038677  -0.038677  -0.036716   0.003678
    20  C    0.197019   4.781020   0.393383   0.393383   0.392069  -0.039209
    21  H   -0.038677   0.393383   0.565129  -0.044584  -0.039226   0.005249
    22  H   -0.038677   0.393383  -0.044584   0.565129  -0.039226  -0.006144
    23  C   -0.036716   0.392069  -0.039226  -0.039226   4.781255   0.393372
    24  H    0.003678  -0.039209   0.005249  -0.006144   0.393372   0.565137
    25  H    0.003678  -0.039209  -0.006144   0.005249   0.393372  -0.044589
    26  O    0.000731  -0.036706   0.003676   0.003676   0.196928  -0.038675
    27  C   -0.000037   0.004325  -0.000181  -0.000181  -0.048651  -0.006167
    28  H    0.000001  -0.000075   0.000016  -0.000012  -0.006174   0.007281
    29  H    0.000001  -0.000075  -0.000012   0.000016  -0.006175  -0.001328
    30  C    0.000000  -0.000078   0.000003   0.000003   0.004323  -0.000075
    31  H    0.000000   0.000003   0.000000   0.000001  -0.000181  -0.000012
    32  H    0.000000   0.000003   0.000001   0.000000  -0.000181   0.000016
    33  O    0.000000   0.000000   0.000000   0.000000  -0.000037   0.000001
    34  C    0.000000   0.000000   0.000000   0.000000   0.000002   0.000000
    35  H    0.000000   0.000000   0.000000   0.000000   0.000000   0.000000
    36  H    0.000000   0.000000   0.000000   0.000000   0.000000   0.000000
    37  C    0.000000   0.000000   0.000000   0.000000   0.000000   0.000000
    38  H    0.000000   0.000000   0.000000   0.000000   0.000000   0.000000
    39  H    0.000000   0.000000   0.000000   0.000000   0.000000   0.000000
    40  O    0.000000   0.000000   0.000000   0.000000   0.000000   0.000000
    41  H    0.000000   0.000000   0.000000   0.000000   0.000000   0.000000
             25         26         27         28         29         30
     1  C    0.000000   0.000000   0.000000   0.000000   0.000000   0.000000
     2  H    0.000000   0.000000   0.000000   0.000000   0.000000   0.000000
     3  H    0.000000   0.000000   0.000000   0.000000   0.000000   0.000000
     4  H    0.000000   0.000000   0.000000   0.000000   0.000000   0.000000
     5  O    0.000000   0.000000   0.000000   0.000000   0.000000   0.000000
     6  C    0.000000   0.000000   0.000000   0.000000   0.000000   0.000000
     7  H    0.000000   0.000000   0.000000   0.000000   0.000000   0.000000
     8  H    0.000000   0.000000   0.000000   0.000000   0.000000   0.000000
     9  C    0.000000   0.000000   0.000000   0.000000   0.000000   0.000000
    10  H    0.000000   0.000000   0.000000   0.000000   0.000000   0.000000
    11  H    0.000000   0.000000   0.000000   0.000000   0.000000   0.000000
    12  O    0.000000   0.000000   0.000000   0.000000   0.000000   0.000000
    13  C    0.000003   0.000000   0.000000   0.000000   0.000000   0.000000
    14  H    0.000000   0.000000   0.000000   0.000000   0.000000   0.000000
    15  H    0.000001   0.000000   0.000000   0.000000   0.000000   0.000000
    16  C   -0.000181  -0.000037   0.000002   0.000000   0.000000   0.000000
    17  H    0.000016   0.000001   0.000000   0.000000   0.000000   0.000000
    18  H   -0.000012   0.000001   0.000000   0.000000   0.000000   0.000000
    19  O    0.003678   0.000731  -0.000037   0.000001   0.000001   0.000000
    20  C   -0.039209  -0.036706   0.004325  -0.000075  -0.000075  -0.000078
    21  H   -0.006144   0.003676  -0.000181   0.000016  -0.000012   0.000003
    22  H    0.005249   0.003676  -0.000181  -0.000012   0.000016   0.000003
    23  C    0.393372   0.196928  -0.048651  -0.006174  -0.006175   0.004323
    24  H   -0.044589  -0.038675  -0.006167   0.007281  -0.001328  -0.000075
    25  H    0.565136  -0.038674  -0.006167  -0.001328   0.007281  -0.000075
    26  O   -0.038674   8.487463   0.196905  -0.038673  -0.038672  -0.036692
    27  C   -0.006167   0.196905   4.781580   0.393322   0.393325   0.392093
    28  H   -0.001328  -0.038673   0.393322   0.565363  -0.044626  -0.039197
    29  H    0.007281  -0.038672   0.393325  -0.044626   0.565355  -0.039201
    30  C   -0.000075  -0.036692   0.392093  -0.039197  -0.039201   4.780646
    31  H    0.000016   0.003671  -0.039232  -0.006142   0.005247   0.393446
    32  H   -0.000012   0.003672  -0.039232   0.005246  -0.006139   0.393449
    33  O    0.000001   0.000731  -0.036775   0.003687   0.003688   0.197268
    34  C    0.000000  -0.000037   0.004349  -0.000181  -0.000181  -0.048185
    35  H    0.000000   0.000001  -0.000077   0.000016  -0.000012  -0.006209
    36  H    0.000000   0.000001  -0.000077  -0.000012   0.000016  -0.006209
    37  C    0.000000   0.000000  -0.000082   0.000003   0.000003   0.004256
    38  H    0.000000   0.000000   0.000003   0.000001   0.000000  -0.000201
    39  H    0.000000   0.000000   0.000003   0.000000   0.000001  -0.000201
    40  O    0.000000   0.000000   0.000000   0.000000   0.000000  -0.000042
    41  H    0.000000   0.000000   0.000000   0.000000   0.000000   0.000003
             31         32         33         34         35         36
     1  C    0.000000   0.000000   0.000000   0.000000   0.000000   0.000000
     2  H    0.000000   0.000000   0.000000   0.000000   0.000000   0.000000
     3  H    0.000000   0.000000   0.000000   0.000000   0.000000   0.000000
     4  H    0.000000   0.000000   0.000000   0.000000   0.000000   0.000000
     5  O    0.000000   0.000000   0.000000   0.000000   0.000000   0.000000
     6  C    0.000000   0.000000   0.000000   0.000000   0.000000   0.000000
     7  H    0.000000   0.000000   0.000000   0.000000   0.000000   0.000000
     8  H    0.000000   0.000000   0.000000   0.000000   0.000000   0.000000
     9  C    0.000000   0.000000   0.000000   0.000000   0.000000   0.000000
    10  H    0.000000   0.000000   0.000000   0.000000   0.000000   0.000000
    11  H    0.000000   0.000000   0.000000   0.000000   0.000000   0.000000
    12  O    0.000000   0.000000   0.000000   0.000000   0.000000   0.000000
    13  C    0.000000   0.000000   0.000000   0.000000   0.000000   0.000000
    14  H    0.000000   0.000000   0.000000   0.000000   0.000000   0.000000
    15  H    0.000000   0.000000   0.000000   0.000000   0.000000   0.000000
    16  C    0.000000   0.000000   0.000000   0.000000   0.000000   0.000000
    17  H    0.000000   0.000000   0.000000   0.000000   0.000000   0.000000
    18  H    0.000000   0.000000   0.000000   0.000000   0.000000   0.000000
    19  O    0.000000   0.000000   0.000000   0.000000   0.000000   0.000000
    20  C    0.000003   0.000003   0.000000   0.000000   0.000000   0.000000
    21  H    0.000000   0.000001   0.000000   0.000000   0.000000   0.000000
    22  H    0.000001   0.000000   0.000000   0.000000   0.000000   0.000000
    23  C   -0.000181  -0.000181  -0.000037   0.000002   0.000000   0.000000
    24  H   -0.000012   0.000016   0.000001   0.000000   0.000000   0.000000
    25  H    0.000016  -0.000012   0.000001   0.000000   0.000000   0.000000
    26  O    0.003671   0.003672   0.000731  -0.000037   0.000001   0.000001
    27  C   -0.039232  -0.039232  -0.036775   0.004349  -0.000077  -0.000077
    28  H   -0.006142   0.005246   0.003687  -0.000181   0.000016  -0.000012
    29  H    0.005247  -0.006139   0.003688  -0.000181  -0.000012   0.000016
    30  C    0.393446   0.393449   0.197268  -0.048185  -0.006209  -0.006209
    31  H    0.564720  -0.044524  -0.038691  -0.006119  -0.001319   0.007250
    32  H   -0.044524   0.564703  -0.038690  -0.006119   0.007250  -0.001318
    33  O   -0.038691  -0.038690   8.486128   0.196726  -0.038516  -0.038516
    34  C   -0.006119  -0.006119   0.196726   4.807673   0.392424   0.392424
    35  H   -0.001319   0.007250  -0.038516   0.392424   0.563915  -0.044502
    36  H    0.007250  -0.001318  -0.038516   0.392424  -0.044502   0.563914
    37  C   -0.000080  -0.000080  -0.037085   0.379332  -0.038787  -0.038787
    38  H   -0.000011   0.000016   0.003790  -0.043488   0.005336  -0.006243
    39  H    0.000016  -0.000011   0.003790  -0.043488  -0.006243   0.005336
    40  O    0.000001   0.000001   0.000721  -0.042187   0.003968   0.003968
    41  H    0.000000   0.000000  -0.000063   0.004892  -0.000205  -0.000205
             37         38         39         40         41
     1  C    0.000000   0.000000   0.000000   0.000000   0.000000
     2  H    0.000000   0.000000   0.000000   0.000000   0.000000
     3  H    0.000000   0.000000   0.000000   0.000000   0.000000
     4  H    0.000000   0.000000   0.000000   0.000000   0.000000
     5  O    0.000000   0.000000   0.000000   0.000000   0.000000
     6  C    0.000000   0.000000   0.000000   0.000000   0.000000
     7  H    0.000000   0.000000   0.000000   0.000000   0.000000
     8  H    0.000000   0.000000   0.000000   0.000000   0.000000
     9  C    0.000000   0.000000   0.000000   0.000000   0.000000
    10  H    0.000000   0.000000   0.000000   0.000000   0.000000
    11  H    0.000000   0.000000   0.000000   0.000000   0.000000
    12  O    0.000000   0.000000   0.000000   0.000000   0.000000
    13  C    0.000000   0.000000   0.000000   0.000000   0.000000
    14  H    0.000000   0.000000   0.000000   0.000000   0.000000
    15  H    0.000000   0.000000   0.000000   0.000000   0.000000
    16  C    0.000000   0.000000   0.000000   0.000000   0.000000
    17  H    0.000000   0.000000   0.000000   0.000000   0.000000
    18  H    0.000000   0.000000   0.000000   0.000000   0.000000
    19  O    0.000000   0.000000   0.000000   0.000000   0.000000
    20  C    0.000000   0.000000   0.000000   0.000000   0.000000
    21  H    0.000000   0.000000   0.000000   0.000000   0.000000
    22  H    0.000000   0.000000   0.000000   0.000000   0.000000
    23  C    0.000000   0.000000   0.000000   0.000000   0.000000
    24  H    0.000000   0.000000   0.000000   0.000000   0.000000
    25  H    0.000000   0.000000   0.000000   0.000000   0.000000
    26  O    0.000000   0.000000   0.000000   0.000000   0.000000
    27  C   -0.000082   0.000003   0.000003   0.000000   0.000000
    28  H    0.000003   0.000001   0.000000   0.000000   0.000000
    29  H    0.000003   0.000000   0.000001   0.000000   0.000000
    30  C    0.004256  -0.000201  -0.000201  -0.000042   0.000003
    31  H   -0.000080  -0.000011   0.000016   0.000001   0.000000
    32  H   -0.000080   0.000016  -0.000011   0.000001   0.000000
    33  O   -0.037085   0.003790   0.003790   0.000721  -0.000063
    34  C    0.379332  -0.043488  -0.043488  -0.042187   0.004892
    35  H   -0.038787   0.005336  -0.006243   0.003968  -0.000205
    36  H   -0.038787  -0.006243   0.005336   0.003968  -0.000205
    37  C    4.754422   0.397922   0.397922   0.204072  -0.020088
    38  H    0.397922   0.568855  -0.043462  -0.037763  -0.003173
    39  H    0.397922  -0.043462   0.568855  -0.037764  -0.003172
    40  O    0.204072  -0.037763  -0.037764   8.406029   0.259830
    41  H   -0.020088  -0.003173  -0.003172   0.259830   0.319138
 Mulliken atomic charges:
              1
     1  C   -0.162230
     2  H    0.182218
     3  H    0.150563
     4  H    0.150563
     5  O   -0.644034
     6  C    0.008381
     7  H    0.158031
     8  H    0.158031
     9  C    0.010642
    10  H    0.161985
    11  H    0.161985
    12  O   -0.669684
    13  C    0.011520
    14  H    0.161567
    15  H    0.161567
    16  C    0.011010
    17  H    0.161434
    18  H    0.161434
    19  O   -0.669357
    20  C    0.011242
    21  H    0.161643
    22  H    0.161643
    23  C    0.011142
    24  H    0.161636
    25  H    0.161637
    26  O   -0.669290
    27  C    0.010954
    28  H    0.161484
    29  H    0.161489
    30  C    0.010876
    31  H    0.161940
    32  H    0.161949
    33  O   -0.668158
    34  C    0.012163
    35  H    0.162959
    36  H    0.162960
    37  C   -0.002942
    38  H    0.158418
    39  H    0.158418
    40  O   -0.760834
    41  H    0.443042
 Sum of Mulliken atomic charges =   0.00000
 Mulliken charges with hydrogens summed into heavy atoms:
              1
     1  C    0.321114
     5  O   -0.644034
     6  C    0.324443
     9  C    0.334612
    12  O   -0.669684
    13  C    0.334655
    16  C    0.333878
    19  O   -0.669357
    20  C    0.334528
    23  C    0.334415
    26  O   -0.669290
    27  C    0.333927
    30  C    0.334765
    33  O   -0.668158
    34  C    0.338082
    37  C    0.313894
    40  O   -0.317791
 Sum of Mulliken charges with hydrogens summed into heavy atoms =   0.00000
 DipInt: DoE/N= T F RetVal/Mat= T F Init=T NMatP=  1 IDeriv=0 Min/MaxMlt=  0  4
 Entering OneElI...
 OneElI was handed    33316966 working-precision words.
 Multipole integrals L=0 to 4 MinM= 0 MaxM= 0.
 Requested accuracy = 0.1000D-12
 PrsmSu:  NPrtUS=   1 ThrOK=F IAlg=1
 PRISM was handed    32974547 working-precision words and  3839 shell-pairs
 IPart=  0 NShTot=        3839 NBatch=          35 AvBLen=       109.7
 Electronic moments (au):
       -138.00000000        948.88252444      -2375.58759117      -1323.17575926
      -6695.14767847     -54053.00049050     -17276.85629575      16339.95999393
       9045.57941703     -30314.29605907      48389.37106211   -1385342.91624178
    -252634.80946265     372666.00944400    -115287.90703574     -63451.27502340
     118058.67323606    -441001.80734772    -777516.13933890     208065.69537279
    -358050.55471700  -37903127.25371496   -3947833.46700138     832734.57983185
     455730.90803795    9572398.61703844  -21260680.50428738    1725369.19454048
   -6861848.87422669   -2634053.38992599    -827517.33015578  -12028135.92883669
   -1464474.92102109    5351707.84021334    3023607.32098459
 Electronic spatial extent (au):  <R**2>=          78025.0045
 DipInt: DoE/N= F T RetVal/Mat= T F Init=T NMatP=  1 IDeriv=0 Min/MaxMlt=  0  4
 Nuclear    moments (au):
        138.00000000       -948.84114958       2375.51606098       1323.20221006
       6616.97857804      53973.36742290      17213.91907086     -16330.44923715
      -9041.98937388      30327.42844618     -46782.47755006    1381254.11562937
     250863.21481779    -371792.28436982     113830.32823041      62660.28456997
    -117547.39364940     440207.75669363     777236.68976725    -207995.21942980
     335431.81077581   37717903.31047063    3901989.76266339    -803987.15245564
    -440022.88145314   -9532881.30992261   21225692.08384162   -1711703.60948270
    6827128.58000698    2595514.56381058     813707.99418158   12007153.03370099
    1445951.08283843   -5343867.84978378   -3015053.63351236
 Total      moments (au):
          0.00000000          0.04137486         -0.07153019          0.02645080
        -78.16910044        -79.63306760        -62.93722489          9.51075678
          3.59004314         13.13238712       1606.89351205      -4088.80061241
      -1771.59464486        873.72507419      -1457.57880533       -790.99045343
        511.27958667       -794.05065410       -279.44957165         70.47594298
     -22618.74394119    -185223.94324432     -45843.70433799      28747.42737621
      15708.02658481      39517.30711584     -34988.42044576      13665.58505779
     -34720.29421971     -38538.82611541     -13809.33597420     -20982.89513570
     -18523.83818266       7839.99042956       8553.68747223
 Traceless Quadrup. (au):
         -4.58930280         -6.05326996         10.64257275          9.51075678
          3.59004314         13.13238712
 Charge=              0.0000 electrons
 Dipole moment (field-independent basis, Debye):
    X=              0.1052    Y=             -0.1818    Z=              0.0672  Tot=              0.2205
 Quadrupole moment (field-independent basis, Debye-Ang):
   XX=           -105.1401   YY=           -107.1092   ZZ=            -84.6527
   XY=             12.7923   XZ=              4.8287   YZ=             17.6635
 Traceless Quadrupole moment (field-independent basis, Debye-Ang):
   XX=             -6.1728   YY=             -8.1419   ZZ=             14.3146
   XY=             12.7923   XZ=              4.8287   YZ=             17.6635
 Octapole moment (field-independent basis, Debye-Ang**2):
  XXX=           1143.7248  YYY=          -2910.2506  ZZZ=          -1260.9527  XYY=            621.8838
  XXY=          -1037.4484  XXZ=           -562.9965  XZZ=            363.9091  YZZ=           -565.1746
  YYZ=           -198.9014  XYZ=             50.1621
 Hexadecapole moment (field-independent basis, Debye-Ang**3):
 XXXX=          -8519.3030 YYYY=         -69764.2142 ZZZZ=         -17266.9362 XXXY=          10827.6589
 XXXZ=           5916.3956 YYYX=          14884.1118 YYYZ=         -13178.3160 ZZZX=           5147.1143
 ZZZY=         -13077.3268 XXYY=         -14515.5690 XXZZ=          -5201.2578 YYZZ=          -7903.1639
 XXYZ=          -6976.9652 YYXZ=           2952.9161 ZZXY=           3221.7287
 N-N= 1.136151894825D+03 E-N=-4.339032099478D+03  KE= 8.781379064340D+02
 Entering OneElI...
 OneElI was handed    33132020 working-precision words.
 Calculate electrostatic properties
    NBasis =   303  MinDer = 0  MaxDer = 0
    NGrid  =    41  NMatD  =   1
 Requested accuracy = 0.1000D-12
 PrsmSu:  NPrtUS=   1 ThrOK=F IAlg=1
 PRISM was handed    32821975 working-precision words and  3283 shell-pairs
 IPart=  0 NShTot=      134603 NBatch=        3283 AvBLen=        41.0
 --------------------------------------------------------
       Center         ----      EFG at Nuclei      ----
                      3XX-RR        3YY-RR        3ZZ-RR
 --------------------------------------------------------
     1   Atom        0.123720      0.070845     -0.194565
     2   Atom        0.116666     -0.279472      0.162806
     3   Atom        0.119816      0.052766     -0.172582
     4   Atom       -0.334086      0.169595      0.164491
     5   Atom        1.308522     -1.266733     -0.041788
     6   Atom        0.140638     -0.298354      0.157715
     7   Atom       -0.330635      0.158006      0.172629
     8   Atom        0.117880      0.048298     -0.166177
     9   Atom        0.146171     -0.311702      0.165531
    10   Atom       -0.330043      0.157294      0.172749
    11   Atom        0.117579      0.048116     -0.165695
    12   Atom        1.295369     -1.255685     -0.039685
    13   Atom        0.146147      0.028836     -0.174983
    14   Atom       -0.330005      0.164277      0.165728
    15   Atom        0.117661      0.049123     -0.166784
    16   Atom        0.146028      0.030458     -0.176486
    17   Atom        0.117693      0.049068     -0.166761
    18   Atom       -0.330037      0.164351      0.165686
    19   Atom        1.296177     -1.260399     -0.035778
    20   Atom        0.145911     -0.309710      0.163799
    21   Atom       -0.329993      0.157264      0.172728
    22   Atom        0.117673      0.047905     -0.165578
    23   Atom        0.145901     -0.309928      0.164028
    24   Atom       -0.329996      0.157257      0.172740
    25   Atom        0.117677      0.047912     -0.165589
    26   Atom        1.296284     -1.259960     -0.036324
    27   Atom        0.146104      0.030038     -0.176143
    28   Atom       -0.330022      0.164326      0.165696
    29   Atom        0.117697      0.049068     -0.166766
    30   Atom        0.146556      0.029206     -0.175762
    31   Atom        0.117611      0.048992     -0.166603
    32   Atom       -0.329958      0.164271      0.165687
    33   Atom        1.297206     -1.258484     -0.038723
    34   Atom        0.147068     -0.309898      0.162830
    35   Atom       -0.329929      0.157234      0.172695
    36   Atom        0.117531      0.047814     -0.165345
    37   Atom        0.147644     -0.310956      0.163312
    38   Atom       -0.331224      0.159357      0.171867
    39   Atom        0.117499      0.048373     -0.165873
    40   Atom        1.272376     -1.270905     -0.001471
    41   Atom        0.174546      0.063419     -0.237965
 --------------------------------------------------------
                        XY            XZ            YZ
 --------------------------------------------------------
     1   Atom       -0.092410     -0.154771     -0.217923
     2   Atom        0.158778     -0.007272     -0.004288
     3   Atom       -0.085853      0.134656      0.186811
     4   Atom       -0.000766     -0.003248     -0.011658
     5   Atom        0.501448     -0.874761     -1.081825
     6   Atom        0.173191     -0.032994     -0.017528
     7   Atom       -0.000015     -0.002212     -0.005398
     8   Atom       -0.075980      0.138756      0.187428
     9   Atom        0.180156     -0.032695     -0.018370
    10   Atom       -0.000210     -0.002008     -0.005249
    11   Atom       -0.075584      0.138934      0.187015
    12   Atom        0.501855     -0.869375     -1.065316
    13   Atom       -0.059624     -0.171018     -0.213958
    14   Atom        0.001191     -0.001266     -0.009335
    15   Atom       -0.082628      0.134800      0.186367
    16   Atom       -0.060763     -0.171519     -0.214760
    17   Atom       -0.082711      0.134751      0.186418
    18   Atom        0.001280     -0.001243     -0.009377
    19   Atom        0.504854     -0.868241     -1.063812
    20   Atom        0.178944     -0.033336     -0.019030
    21   Atom       -0.000011     -0.001984     -0.005325
    22   Atom       -0.075633      0.138832      0.187055
    23   Atom        0.179094     -0.033231     -0.018898
    24   Atom       -0.000022     -0.001993     -0.005322
    25   Atom       -0.075621      0.138839      0.187053
    26   Atom        0.504490     -0.868534     -1.064233
    27   Atom       -0.060471     -0.171454     -0.214606
    28   Atom        0.001267     -0.001256     -0.009374
    29   Atom       -0.082689      0.134752      0.186403
    30   Atom       -0.059942     -0.171469     -0.214661
    31   Atom       -0.082722      0.134801      0.186378
    32   Atom        0.001309     -0.001280     -0.009366
    33   Atom        0.502985     -0.869080     -1.066098
    34   Atom        0.179192     -0.034924     -0.019919
    35   Atom        0.000066     -0.001963     -0.005339
    36   Atom       -0.075745      0.138924      0.187018
    37   Atom        0.175188     -0.030715     -0.025128
    38   Atom        0.001344     -0.002476     -0.004696
    39   Atom       -0.076457      0.137781      0.188923
    40   Atom        0.515847     -0.834489     -1.028221
    41   Atom       -0.093936     -0.213542     -0.274706
 --------------------------------------------------------


 ---------------------------------------------------------------------------------
              Nuclear Quadrupole in Principal Axis System
 ---------------------------------------------------------------------------------

       Atom             a.u.   MegaHertz   Gauss  10(-4) cm-1        Axes

              Baa    -0.3813   -51.168   -18.258   -17.068  0.3361  0.4638  0.8197
     1 C(13)  Bbb     0.1855    24.887     8.880     8.301  0.8173  0.2889 -0.4985
              Bcc     0.1958    26.281     9.378     8.766 -0.4680  0.8375 -0.2820
 
              Baa    -0.3353  -178.880   -63.829   -59.668 -0.3314  0.9435  0.0033
     2 H(1)   Bbb     0.1580    84.327    30.090    28.129  0.4713  0.1625  0.8669
[...]
 **** Fit      -0.012291
 **** Fit      -0.008368
 **** Fit      -0.005458
 **** Fit      -0.003284
 **** Fit      -0.001659
 **** Fit      -0.000450
 **** Fit       0.000443
 **** Fit       0.001104
 **** Fit       0.001615
 **** Fit      -0.012522
 **** Fit      -0.008783
 **** Fit      -0.005886
 **** Fit      -0.003650
 **** Fit      -0.001929
 **** Fit      -0.000607
 **** Fit       0.000414
 **** Fit       0.001231
 **** Fit       0.001957
 **** Fit      -0.010745
 **** Fit      -0.007691
 **** Fit      -0.005180
 **** Fit      -0.003161
 **** Fit      -0.001557
 **** Fit      -0.000287
 **** Fit       0.000739
 **** Fit       0.001633
 **** Fit      -0.008717
 **** Fit      -0.006449
 **** Fit      -0.004409
 **** Fit      -0.002666
 **** Fit      -0.001219
 **** Fit      -0.000025
 **** Fit       0.000991
 **** Fit       0.001961
 **** Fit      -0.005558
 **** Fit      -0.003932
 **** Fit      -0.002384
 **** Fit      -0.001015
 **** Fit       0.000164
 **** Fit       0.001216
 **** Fit      -0.001968
 **** Fit      -0.000764
 **** Fit       0.000352
 **** Fit       0.001405
 **** Fit       0.000061
 **** Fit       0.001099
 **** Fit      -0.000801
 **** Fit      -0.001285
 **** Fit      -0.002733
 **** Fit      -0.005127
 **** Fit      -0.008441
 **** Fit      -0.001318
 **** Fit      -0.000926
 **** Fit      -0.001290
 **** Fit      -0.002366
 **** Fit      -0.004112
 **** Fit      -0.006446
 **** Fit      -0.009190
 **** Fit      -0.012035
 **** Fit      -0.014558
 **** Fit      -0.000854
 **** Fit      -0.000675
 **** Fit      -0.001033
 **** Fit      -0.001916
 **** Fit      -0.003277
 **** Fit      -0.005012
 **** Fit      -0.006938
 **** Fit      -0.008795
 **** Fit      -0.010279
 **** Fit      -0.011125
 **** Fit      -0.011181
 **** Fit      -0.010442
 **** Fit      -0.009037
 **** Fit      -0.001535
 **** Fit      -0.000205
 **** Fit      -0.000240
 **** Fit      -0.000618
 **** Fit      -0.001358
 **** Fit      -0.002417
 **** Fit      -0.003694
 **** Fit      -0.005026
 **** Fit      -0.006209
 **** Fit      -0.007037
 **** Fit      -0.007358
 **** Fit      -0.007113
 **** Fit      -0.006341
 **** Fit      -0.005151
 **** Fit      -0.000417
 **** Fit       0.000487
 **** Fit       0.000242
 **** Fit      -0.000220
 **** Fit      -0.000937
 **** Fit      -0.001856
 **** Fit      -0.002852
 **** Fit      -0.003754
 **** Fit      -0.004380
 **** Fit      -0.004596
 **** Fit      -0.004350
 **** Fit      -0.003679
 **** Fit      -0.002679
 **** Fit      -0.001467
 **** Fit       0.000673
 **** Fit       0.001135
 **** Fit       0.000702
 **** Fit       0.000170
 **** Fit      -0.000507
 **** Fit      -0.001263
 **** Fit      -0.001960
 **** Fit      -0.002436
 **** Fit      -0.002567
 **** Fit      -0.002308
 **** Fit      -0.001695
 **** Fit      -0.000819
 **** Fit       0.000221
 **** Fit       0.001675
 **** Fit       0.001067
 **** Fit       0.000465
 **** Fit      -0.000166
 **** Fit      -0.000714
 **** Fit      -0.001019
 **** Fit      -0.000967
 **** Fit      -0.000541
 **** Fit       0.000187
 **** Fit       0.001115
 **** Fit       0.002049
 **** Fit       0.001277
 **** Fit       0.000644
 **** Fit       0.000221
 **** Fit       0.000201
 **** Fit       0.000660
 **** Fit       0.001512
 **** Fit       0.002212
 **** Fit       0.001380
 **** Fit       0.001192
 **** Fit       0.001887
 **** Fit       0.002147
 **** Fit       0.012891
 **** Fit       0.016241
 **** Fit       0.012412
 **** Fit       0.015737
 **** Fit       0.019774
 **** Fit       0.009902
 **** Fit       0.011684
 **** Fit       0.014884
 **** Fit       0.019006
 **** Fit       0.007315
 **** Fit       0.009205
 **** Fit       0.010822
 **** Fit       0.013580
 **** Fit       0.017095
 **** Fit       0.005127
 **** Fit       0.006684
 **** Fit       0.008570
 **** Fit       0.015409
 **** Fit       0.002665
 **** Fit       0.004195
 **** Fit      -0.000066
 **** Fit       0.001632
 **** Fit      -0.004345
 **** Fit      -0.005551
 **** Fit      -0.003669
 **** Fit      -0.001578
 **** Fit      -0.004395
 **** Fit      -0.002189
 **** Fit      -0.008482
 **** Fit      -0.005735
 **** Fit      -0.003314
 **** Fit      -0.004656
 **** Fit      -0.001388
 **** Fit       0.009219
 **** Fit       0.011650
 **** Fit       0.007375
 **** Fit       0.008020
 **** Fit       0.009909
 **** Fit       0.012415
 **** Fit       0.016099
 **** Fit       0.003644
 **** Fit       0.004985
 **** Fit       0.006432
 **** Fit       0.006961
 **** Fit       0.008471
 **** Fit       0.010318
 **** Fit       0.012872
 **** Fit       0.016801
 **** Fit       0.001213
 **** Fit       0.002726
 **** Fit       0.004181
 **** Fit       0.005572
 **** Fit       0.005999
 **** Fit       0.007189
 **** Fit       0.008508
 **** Fit       0.010164
 **** Fit       0.012512
 **** Fit      -0.001525
 **** Fit       0.000368
 **** Fit       0.002042
 **** Fit       0.003505
 **** Fit       0.004801
 **** Fit       0.005093
 **** Fit       0.006085
 **** Fit       0.007071
 **** Fit       0.008182
 **** Fit       0.009626
 **** Fit       0.011756
 **** Fit      -0.005873
 **** Fit      -0.003042
 **** Fit      -0.000718
 **** Fit       0.001172
 **** Fit       0.002716
 **** Fit       0.003997
 **** Fit       0.004209
 **** Fit       0.005028
 **** Fit       0.005732
 **** Fit       0.006392
 **** Fit       0.007096
 **** Fit       0.007965
 **** Fit      -0.007850
 **** Fit      -0.004342
 **** Fit      -0.001678
 **** Fit       0.000368
 **** Fit       0.001958
 **** Fit       0.003210
 **** Fit       0.003323
 **** Fit       0.004015
 **** Fit       0.004504
 **** Fit       0.004823
 **** Fit       0.004985
 **** Fit       0.004968
 **** Fit       0.004681
 **** Fit      -0.005924
 **** Fit      -0.002827
 **** Fit      -0.000564
 **** Fit       0.001119
 **** Fit       0.002381
 **** Fit       0.002422
 **** Fit       0.003036
 **** Fit       0.003352
 **** Fit       0.003374
 **** Fit       0.003054
 **** Fit       0.002254
 **** Fit      -0.008609
 **** Fit      -0.004597
 **** Fit      -0.001845
 **** Fit       0.000094
 **** Fit       0.001468
 **** Fit       0.001506
 **** Fit       0.002068
 **** Fit       0.002222
 **** Fit       0.001946
 **** Fit       0.001129
 **** Fit      -0.000496
 **** Fit      -0.006951
 **** Fit      -0.003413
 **** Fit      -0.001069
 **** Fit       0.000498
 **** Fit       0.000599
 **** Fit       0.001121
 **** Fit       0.001137
 **** Fit       0.000602
 **** Fit      -0.000639
 **** Fit      -0.002933
 **** Fit      -0.005052
 **** Fit      -0.002255
 **** Fit      -0.000477
 **** Fit      -0.000252
 **** Fit       0.000264
 **** Fit       0.000110
 **** Fit      -0.000781
 **** Fit      -0.002636
 **** Fit      -0.003743
 **** Fit      -0.001506
 **** Fit      -0.000954
 **** Fit      -0.000430
 **** Fit      -0.000723
 **** Fit      -0.001885
 **** Fit      -0.002406
 **** Fit      -0.001348
 **** Fit      -0.000787
 **** Fit       0.008080
 **** Fit       0.008648
 **** Fit       0.010143
 **** Fit       0.009181
 **** Fit       0.007277
 **** Fit       0.006475
 **** Fit       0.006957
 **** Fit       0.008971
 **** Fit       0.011277
 **** Fit       0.012948
 **** Fit       0.012578
 **** Fit       0.010264
 **** Fit       0.007804
 **** Fit       0.006254
 **** Fit       0.005470
 **** Fit       0.005131
 **** Fit       0.005184
 **** Fit       0.005772
 **** Fit       0.007033
 **** Fit       0.009052
 **** Fit       0.011672
 **** Fit       0.017255
 **** Fit       0.014944
 **** Fit       0.011266
 **** Fit       0.008069
 **** Fit       0.006074
 **** Fit       0.005035
 **** Fit       0.004495
 **** Fit       0.004152
 **** Fit       0.003902
 **** Fit       0.003793
 **** Fit       0.003941
 **** Fit       0.004470
 **** Fit       0.005466
 **** Fit       0.006980
 **** Fit       0.008901
 **** Fit       0.010311
 **** Fit       0.006649
 **** Fit       0.004717
 **** Fit       0.003868
 **** Fit       0.003515
 **** Fit       0.003301
 **** Fit       0.003064
 **** Fit       0.002777
 **** Fit       0.002501
 **** Fit       0.002346
 **** Fit       0.002434
 **** Fit       0.002864
 **** Fit       0.003695
 **** Fit       0.004953
 **** Fit       0.006665
 **** Fit       0.003259
 **** Fit       0.002296
 **** Fit       0.002141
 **** Fit       0.002219
 **** Fit       0.002243
 **** Fit       0.002103
 **** Fit       0.001789
 **** Fit       0.001362
 **** Fit       0.000928
 **** Fit       0.000620
 **** Fit       0.000567
 **** Fit       0.000870
 **** Fit       0.001580
 **** Fit       0.002700
 **** Fit       0.004217
 **** Fit      -0.000281
 **** Fit       0.000365
 **** Fit       0.000910
 **** Fit       0.001191
 **** Fit       0.001162
 **** Fit       0.000841
 **** Fit       0.000293
 **** Fit      -0.000383
 **** Fit      -0.001054
 **** Fit      -0.001571
 **** Fit      -0.001790
 **** Fit      -0.001605
 **** Fit      -0.000966
 **** Fit       0.000115
 **** Fit       0.001588
 **** Fit      -0.002933
 **** Fit      -0.001353
 **** Fit      -0.000288
 **** Fit       0.000239
 **** Fit       0.000260
 **** Fit      -0.000165
 **** Fit      -0.000955
 **** Fit      -0.001992
 **** Fit      -0.003115
 **** Fit      -0.004124
 **** Fit      -0.004814
 **** Fit      -0.005005
 **** Fit      -0.004590
 **** Fit      -0.003562
 **** Fit      -0.002804
 **** Fit      -0.001233
 **** Fit      -0.000501
 **** Fit      -0.000484
 **** Fit      -0.001088
 **** Fit      -0.002225
 **** Fit      -0.003778
 **** Fit      -0.005568
 **** Fit      -0.007339
 **** Fit      -0.008719
 **** Fit      -0.001125
 **** Fit      -0.000793
 **** Fit      -0.001357
 **** Fit      -0.002731
 **** Fit      -0.004851
 **** Fit       0.007180
 **** Fit       0.003799
 **** Fit       0.002528
 **** Fit       0.002504
 **** Fit       0.001896
 **** Fit      -0.000418
 **** Fit      -0.001717
 **** Fit      -0.001981
 **** Fit      -0.001266
 **** Fit      -0.000810
 **** Fit      -0.003347
 **** Fit      -0.005059
 **** Fit      -0.005881
 **** Fit      -0.005800
 **** Fit      -0.004866
 **** Fit      -0.003181
 **** Fit      -0.000459
 **** Fit      -0.003496
 **** Fit      -0.006008
 **** Fit      -0.007885
 **** Fit      -0.009039
 **** Fit      -0.009416
 **** Fit      -0.009006
 **** Fit      -0.007852
 **** Fit      -0.006055
 **** Fit      -0.001551
 **** Fit      -0.004495
 **** Fit      -0.007124
 **** Fit      -0.009323
 **** Fit      -0.010986
 **** Fit      -0.012024
 **** Fit      -0.012371
 **** Fit      -0.011994
 **** Fit      -0.010903
 **** Fit      -0.009164
 **** Fit      -0.002116
 **** Fit      -0.004868
 **** Fit      -0.007500
 **** Fit      -0.009891
 **** Fit      -0.011925
 **** Fit      -0.013491
 **** Fit      -0.014486
 **** Fit      -0.014827
 **** Fit      -0.014453
 **** Fit      -0.013340
 **** Fit      -0.011517
 **** Fit      -0.009088
 **** Fit       0.007200
 **** Fit      -0.001296
 **** Fit      -0.003464
 **** Fit      -0.005759
 **** Fit      -0.008088
 **** Fit      -0.010348
 **** Fit      -0.012430
 **** Fit      -0.014225
 **** Fit      -0.015622
 **** Fit      -0.016517
 **** Fit      -0.016811
 **** Fit      -0.016424
 **** Fit      -0.015300
 **** Fit      -0.013416
 **** Fit       0.002877
 **** Fit       0.001987
 **** Fit       0.001179
 **** Fit       0.000362
 **** Fit      -0.000542
 **** Fit      -0.001601
 **** Fit      -0.002859
 **** Fit      -0.004330
 **** Fit      -0.006001
 **** Fit      -0.007831
 **** Fit      -0.009760
 **** Fit      -0.011709
 **** Fit      -0.013587
 **** Fit      -0.015295
 **** Fit      -0.016724
 **** Fit      -0.017766
 **** Fit      -0.018309
 **** Fit      -0.018251
 **** Fit      -0.017496
 **** Fit      -0.015964
 **** Fit      -0.013590
 **** Fit      -0.000995
 **** Fit      -0.002202
 **** Fit      -0.003281
 **** Fit      -0.004301
 **** Fit      -0.005332
 **** Fit      -0.006433
 **** Fit      -0.007649
 **** Fit      -0.009000
 **** Fit      -0.010480
 **** Fit      -0.012059
 **** Fit      -0.013685
 **** Fit      -0.015285
 **** Fit      -0.016769
 **** Fit      -0.018037
 **** Fit      -0.018978
 **** Fit      -0.019476
 **** Fit      -0.019415
 **** Fit      -0.018678
 **** Fit      -0.017152
 **** Fit      -0.004280
 **** Fit      -0.005735
 **** Fit      -0.007031
 **** Fit      -0.008216
 **** Fit      -0.009346
 **** Fit      -0.010474
 **** Fit      -0.011641
 **** Fit      -0.012868
 **** Fit      -0.014157
 **** Fit      -0.015481
 **** Fit      -0.016793
 **** Fit      -0.018025
 **** Fit      -0.019089
 **** Fit      -0.019884
 **** Fit      -0.020298
 **** Fit      -0.020213
 **** Fit      -0.019507
 **** Fit      -0.018050
 **** Fit      -0.007078
 **** Fit      -0.008782
 **** Fit      -0.010290
 **** Fit      -0.011639
 **** Fit      -0.012882
 **** Fit      -0.014067
 **** Fit      -0.015232
 **** Fit      -0.016391
 **** Fit      -0.017532
 **** Fit      -0.018617
 **** Fit      -0.019577
 **** Fit      -0.020324
 **** Fit      -0.020746
 **** Fit      -0.020719
 **** Fit      -0.020109
 **** Fit      -0.018772
 **** Fit      -0.016542
 **** Fit      -0.009321
 **** Fit      -0.011281
 **** Fit      -0.012982
 **** Fit      -0.014467
 **** Fit      -0.015786
 **** Fit      -0.016986
 **** Fit      -0.018090
 **** Fit      -0.019093
 **** Fit      -0.019952
 **** Fit      -0.020589
 **** Fit      -0.020895
 **** Fit      -0.020736
 **** Fit      -0.019962
 **** Fit      -0.018411
 **** Fit      -0.008352
 **** Fit      -0.010899
 **** Fit      -0.013084
 **** Fit      -0.014926
 **** Fit      -0.016471
 **** Fit      -0.017772
 **** Fit      -0.018859
 **** Fit      -0.019729
 **** Fit      -0.020333
 **** Fit      -0.020580
 **** Fit      -0.020339
 **** Fit      -0.019455
 **** Fit      -0.017761
 **** Fit      -0.012000
 **** Fit      -0.014398
 **** Fit      -0.016301
 **** Fit      -0.017771
 **** Fit      -0.018841
 **** Fit      -0.019497
 **** Fit      -0.019659
 **** Fit      -0.019190
 **** Fit      -0.017918
 **** Fit      -0.015297
 **** Fit      -0.016957
 **** Fit      -0.017835
 **** Fit      -0.017858
 **** Fit      -0.016855
 **** Fit       0.019039
 **** Fit       0.020258
 **** Fit       0.019810
 **** Fit       0.018368
 **** Fit       0.017290
 **** Fit       0.017888
 **** Fit       0.019398
 **** Fit       0.020979
 **** Fit       0.020878
 **** Fit       0.020177
 **** Fit       0.018941
 **** Fit       0.017366
 **** Fit       0.015854
 **** Fit       0.014970
 **** Fit       0.015174
 **** Fit       0.016395
 **** Fit       0.018014
 **** Fit       0.019456
 **** Fit       0.020484
 **** Fit       0.021225
 **** Fit       0.021213
 **** Fit       0.020845
 **** Fit       0.020118
 **** Fit       0.019036
 **** Fit       0.017636
 **** Fit       0.016009
 **** Fit       0.014337
 **** Fit       0.012894
 **** Fit       0.012027
 **** Fit       0.012032
 **** Fit       0.012988
 **** Fit       0.014628
 **** Fit       0.019208
 **** Fit       0.020194
 **** Fit       0.020882
 **** Fit       0.021012
 **** Fit       0.021011
 **** Fit       0.020758
 **** Fit       0.020247
 **** Fit       0.019464
 **** Fit       0.018398
 **** Fit       0.017050
 **** Fit       0.015447
 **** Fit       0.013659
 **** Fit       0.011811
 **** Fit       0.010102
 **** Fit       0.008801
 **** Fit       0.008207
 **** Fit       0.008550
 **** Fit       0.009875
 **** Fit       0.020213
 **** Fit       0.020751
 **** Fit       0.020348
 **** Fit       0.020320
 **** Fit       0.020098
 **** Fit       0.019680
 **** Fit       0.019046
 **** Fit       0.018175
 **** Fit       0.017049
 **** Fit       0.015655
 **** Fit       0.014000
 **** Fit       0.012113
 **** Fit       0.010064
 **** Fit       0.007974
 **** Fit       0.006036
 **** Fit       0.004517
 **** Fit       0.020165
 **** Fit       0.019233
 **** Fit       0.019145
 **** Fit       0.018921
 **** Fit       0.018555
 **** Fit       0.018026
 **** Fit       0.017311
 **** Fit       0.016383
 **** Fit       0.015219
 **** Fit       0.013804
 **** Fit       0.012128
 **** Fit       0.010199
 **** Fit       0.008046
 **** Fit       0.005736
 **** Fit       0.003388
 **** Fit       0.019162
 **** Fit       0.017655
 **** Fit       0.017460
 **** Fit       0.017178
 **** Fit       0.016790
 **** Fit       0.016269
 **** Fit       0.015583
 **** Fit       0.014697
 **** Fit       0.013583
 **** Fit       0.012213
 **** Fit       0.010565
 **** Fit       0.008626
 **** Fit       0.006394
 **** Fit       0.003892
 **** Fit       0.001183
 **** Fit       0.015583
 **** Fit       0.015237
 **** Fit       0.014872
 **** Fit       0.014450
 **** Fit       0.013929
 **** Fit       0.013267
 **** Fit       0.012427
 **** Fit       0.011372
 **** Fit       0.010070
 **** Fit       0.008489
 **** Fit       0.006603
 **** Fit       0.004390
 **** Fit       0.001843
 **** Fit       0.012404
 **** Fit       0.011926
 **** Fit       0.011440
 **** Fit       0.010883
 **** Fit       0.010204
 **** Fit       0.009354
 **** Fit       0.008291
 **** Fit       0.006974
 **** Fit       0.005366
 **** Fit       0.003430
 **** Fit       0.001131
 **** Fit       0.008846
 **** Fit       0.008219
 **** Fit       0.007629
 **** Fit       0.006982
 **** Fit       0.006204
 **** Fit       0.005232
 **** Fit       0.004009
 **** Fit       0.002482
 **** Fit       0.000600
 -----------------------------------------------------------------
 Leave Link  602 at Tue May  2 10:07:52 2017, MaxMem=   33554432 cpu:       2.2

 Test job not archived.
 1\1\GINC-N0715\FOpt\RHF\6-31G(d)\C11H24O6\JSMITH07\02-May-2017\0\\#HF/
 6-31G* SCF=tight Test Pop=MK iop(6/33=2) NoSymm iop(6/42=6) opt\\remar
 k line goes here\\0,1\C,-3.8818157816,1.1754131337,0.0776461629\H,-3.4
 84954588,0.1720337977,0.1469779018\H,-3.5243057853,1.6335886943,-0.842
 4358751\H,-4.9681007807,1.1233739036,0.0380732197\O,-3.4467154589,1.87
 8012197,1.198216186\C,-3.8824010332,3.2011463851,1.2505063352\H,-4.969
 3137859,3.2539223203,1.2623388675\H,-3.5322828087,3.7617467976,0.38595
 49796\C,-3.3276838769,3.8176332774,2.5173174963\H,-2.2413984921,3.7662
 868025,2.5053544011\H,-3.6783725542,3.2584824038,3.3817035589\O,-3.763
 5377518,5.1425052777,2.5703387533\C,-3.3327832737,5.8552210207,3.68964
 54084\H,-2.2466430869,5.8955444118,3.730610188\H,-3.6835786124,5.38775
 35411,4.6069356451\C,-3.8929581863,7.2581221303,3.5840284467\H,-3.5420
 913019,7.7256794558,2.666828285\H,-4.9790914264,7.2178656847,3.5431926
 687\O,-3.4623771156,7.9714135618,4.703385086\C,-3.8981297156,9.2958577
 639,4.7563249127\H,-4.9844844407,9.3474128424,4.7683074842\H,-3.547499
 3487,9.8552214367,3.891953036\C,-3.3429429179,9.9116090657,6.023482085
 7\H,-2.256581742,9.86004433,6.0114949841\H,-3.693575457,9.35223375,6.8
 878542746\O,-3.778663932,11.2360532292,6.0764717641\C,-3.3481191476,11
 .9493906013,7.1958011326\H,-2.2619693367,11.9895988406,7.2366530695\H,
 -3.6989748358,11.4817980876,8.1130059528\C,-3.9082080333,13.3523664434
 ,7.0903469705\H,-3.5574171254,13.819878078,6.1731074184\H,-4.994325619
 6,13.312105439,7.0493895508\O,-3.4774295474,14.0651088278,8.209738119\
 C,-3.9131019499,15.3899838191,8.2629744595\H,-4.9994167318,15.44213666
 57,8.2753957791\H,-3.5623078326,15.9499284754,7.3990535143\C,-3.359306
 7392,16.0076378898,9.5290370481\H,-2.2742073907,15.9513244244,9.511760
 9141\H,-3.7116858329,15.4434043384,10.388327277\O,-3.8047638972,17.337
 0315769,9.5688412955\H,-3.4783548652,17.7605376375,10.3495007122\\Vers
 ion=EM64L-G09RevA.02\HF=-879.6122527\RMSD=5.025e-09\RMSF=2.808e-05\Dip
 ole=0.079256,-0.0705113,0.0891204\Quadrupole=-5.0911249,-6.0175113,11.
 1086363,9.223588,3.8117181,12.97392\PG=C01 [X(C11H24O6)]\\@


 NATURE WILL TELL YOU A DIRECT LIE IF SHE CAN.

                                -- CHARLES DARWIN
 Job cpu time:  0 days  0 hours  5 minutes 13.9 seconds.
 File lengths (MBytes):  RWF=    188 Int=      0 D2E=      0 Chk=     10 Scr=      4
 Normal termination of Gaussian 09 at Tue May  2 10:07:52 2017.
