 Entering Gaussian System, Link 0=g09
 Input=PCB.com
 Output=PCB.log
 Initial command:
 /gscratch/pfaendtner/codes/G09/g09/l1.exe /gscratch/pfaendtner/josh/gaussian/Gau-27848.inp -scrdir=/gscratch/pfaendtner/josh/gaussian/
 Entering Link 1 = /gscratch/pfaendtner/codes/G09/g09/l1.exe PID=     27858.
  
 Copyright (c) 1988,1990,1992,1993,1995,1998,2003,2009, Gaussian, Inc.
                  All Rights Reserved.
  
 This is part of the Gaussian(R) 09 program.  It is based on
 the Gaussian(R) 03 system (copyright 2003, Gaussian, Inc.),
 the Gaussian(R) 98 system (copyright 1998, Gaussian, Inc.),
 the Gaussian(R) 94 system (copyright 1995, Gaussian, Inc.),
 the Gaussian 92(TM) system (copyright 1992, Gaussian, Inc.),
 the Gaussian 90(TM) system (copyright 1990, Gaussian, Inc.),
 the Gaussian 88(TM) system (copyright 1988, Gaussian, Inc.),
 the Gaussian 86(TM) system (copyright 1986, Carnegie Mellon
 University), and the Gaussian 82(TM) system (copyright 1983,
 Carnegie Mellon University). Gaussian is a federally registered
 trademark of Gaussian, Inc.
  
 This software contains proprietary and confidential information,
 including trade secrets, belonging to Gaussian, Inc.
  
 This software is provided under written license and may be
 used, copied, transmitted, or stored only in accord with that
 written license.
  
 The following legend is applicable only to US Government
 contracts under FAR:
  
                    RESTRICTED RIGHTS LEGEND
  
 Use, reproduction and disclosure by the US Government is
 subject to restrictions as set forth in subparagraphs (a)
 and (c) of the Commercial Computer Software - Restricted
 Rights clause in FAR 52.227-19.
  
 Gaussian, Inc.
 340 Quinnipiac St., Bldg. 40, Wallingford CT 06492
  
  
 ---------------------------------------------------------------
 Warning -- This program may not be used in any manner that
 competes with the business of Gaussian, Inc. or will provide
 assistance to any competitor of Gaussian, Inc.  The licensee
 of this program is prohibited from giving any competitor of
 Gaussian, Inc. access to this program.  By using this program,
 the user acknowledges that Gaussian, Inc. is engaged in the
 business of creating and licensing software in the field of
 computational chemistry and represents and warrants to the
 licensee that it is not a competitor of Gaussian, Inc. and that
 it will not use this program in any manner prohibited above.
 ---------------------------------------------------------------
  

 Cite this work as:
 Gaussian 09, Revision A.02,
 M. J. Frisch, G. W. Trucks, H. B. Schlegel, G. E. Scuseria, 
 M. A. Robb, J. R. Cheeseman, G. Scalmani, V. Barone, B. Mennucci, 
 G. A. Petersson, H. Nakatsuji, M. Caricato, X. Li, H. P. Hratchian, 
 A. F. Izmaylov, J. Bloino, G. Zheng, J. L. Sonnenberg, M. Hada, 
 M. Ehara, K. Toyota, R. Fukuda, J. Hasegawa, M. Ishida, T. Nakajima, 
 Y. Honda, O. Kitao, H. Nakai, T. Vreven, J. A. Montgomery, Jr., 
 J. E. Peralta, F. Ogliaro, M. Bearpark, J. J. Heyd, E. Brothers, 
 K. N. Kudin, V. N. Staroverov, R. Kobayashi, J. Normand, 
 K. Raghavachari, A. Rendell, J. C. Burant, S. S. Iyengar, J. Tomasi, 
 M. Cossi, N. Rega, J. M. Millam, M. Klene, J. E. Knox, J. B. Cross, 
 V. Bakken, C. Adamo, J. Jaramillo, R. Gomperts, R. E. Stratmann, 
 O. Yazyev, A. J. Austin, R. Cammi, C. Pomelli, J. W. Ochterski, 
 R. L. Martin, K. Morokuma, V. G. Zakrzewski, G. A. Voth, 
 P. Salvador, J. J. Dannenberg, S. Dapprich, A. D. Daniels, 
 O. Farkas, J. B. Foresman, J. V. Ortiz, J. Cioslowski, 
 and D. J. Fox, Gaussian, Inc., Wallingford CT, 2009.
 
 ******************************************
 Gaussian 09:  EM64L-G09RevA.02 11-Jun-2009
                 6-Apr-2017 
 ******************************************
 %chk=molecule
 -------------------------------------------------------------------
 #HF/6-31G* SCF=tight Test Pop=MK iop(6/33=2) NoSymm iop(6/42=6) opt
 -------------------------------------------------------------------
 1/18=20,19=15,38=1/1,3;
 2/9=110,12=2,15=1,17=6,18=5,40=1/2;
 3/5=1,6=6,7=1,11=9,16=1,25=1,30=1,71=1/1,2,3;
 4//1;
 5/5=2,32=2,38=5/2;
 6/7=2,8=2,9=2,10=2,15=8,20=1,28=1,33=2,42=6/1,2;
 7/30=1/1,2,3,16;
 1/18=20,19=15/3(2);
 2/9=110,15=1/2;
 99//99;
 2/9=110,15=1/2;
 3/5=1,6=6,7=1,11=9,16=1,25=1,30=1,71=1/1,2,3;
 4/5=5,16=3/1;
 5/5=2,32=2,38=5/2;
 7/30=1/1,2,3,16;
 1/18=20,19=15/3(-5);
 2/9=110,15=1/2;
 6/7=2,8=2,9=2,10=2,15=8,19=2,20=1,28=1,33=2,42=6/1,2;
 99/9=1/99;
 ---------------------
 remark line goes here
 ---------------------
 Symbolic Z-matrix:
 Charge =  0 Multiplicity = 1
 C                    -2.259     2.109     0. 
 H                    -1.902     2.614     0.874 
 H                    -1.902     2.614    -0.874 
 C                    -3.799     2.109     0. 
 H                    -4.156     1.603     0.873 
 H                    -4.156     3.118     0.002 
 H                    -4.156     1.607    -0.875 
 C                    -1.746     0.657     0. 
 C                    -0.206     0.657    -0.001 
 H                     0.151    -0.352     0. 
 H                     0.151     1.161    -0.874 
 H                     0.151     1.162     0.873 
 C                    -2.26     -0.069    -1.257 
 H                    -3.271    -0.382    -1.1 
 H                    -2.218     0.596    -2.095 
 H                    -1.647    -0.925    -1.45 
 C                    -2.259    -0.069     1.258 
 O                    -1.635    -1.062     1.714 
 O                    -3.447     0.388     1.909 
 C                    -3.667    -0.381     3.095 
 H                    -3.8      -1.41      2.833 
 H                    -2.822    -0.284     3.744 
 C                    -4.928     0.134     3.813 
 H                    -4.794     1.162     4.078 
 H                    -5.773     0.04      3.163 
 N                    -5.168    -0.697     5.087 
 C                    -4.009    -0.568     5.982 
 H                    -4.317    -0.738     6.992 
 H                    -3.265    -1.288     5.71 
 H                    -3.6       0.417     5.895 
 C                    -5.351    -2.11      4.724 
 H                    -5.882    -2.613     5.505 
 H                    -5.909    -2.175     3.814 
 H                    -4.394    -2.57      4.589 
 C                    -6.373    -0.208     5.773 
 H                    -6.239     0.82      6.039 
 H                    -7.216    -0.3       5.121 
 C                    -6.614    -1.04      7.045 
 H                    -6.647    -0.391     7.895 
 H                    -5.818    -1.745     7.166 
 C                    -7.952    -1.793     6.921 
 O                    -8.653    -2.01      7.943 
 O                    -8.398    -2.245     5.64 
 

 GradGradGradGradGradGradGradGradGradGradGradGradGradGradGradGradGradGrad
 Berny optimization.
 Initialization pass.
                           ----------------------------
                           !    Initial Parameters    !
                           ! (Angstroms and Degrees)  !
 --------------------------                            --------------------------
 ! Name  Definition              Value          Derivative Info.                !
 --------------------------------------------------------------------------------
 ! R1    R(1,2)                  1.0707         estimate D2E/DX2                !
 ! R2    R(1,3)                  1.0707         estimate D2E/DX2                !
 ! R3    R(1,4)                  1.54           estimate D2E/DX2                !
 ! R4    R(1,8)                  1.54           estimate D2E/DX2                !
 ! R5    R(4,5)                  1.0703         estimate D2E/DX2                !
 ! R6    R(4,6)                  1.0703         estimate D2E/DX2                !
 ! R7    R(4,7)                  1.0701         estimate D2E/DX2                !
 ! R8    R(5,19)                 1.7471         estimate D2E/DX2                !
 ! R9    R(8,9)                  1.54           estimate D2E/DX2                !
 ! R10   R(8,13)                 1.5399         estimate D2E/DX2                !
 ! R11   R(8,17)                 1.5404         estimate D2E/DX2                !
 ! R12   R(9,10)                 1.0703         estimate D2E/DX2                !
 ! R13   R(9,11)                 1.0694         estimate D2E/DX2                !
 ! R14   R(9,12)                 1.0707         estimate D2E/DX2                !
 ! R15   R(13,14)                1.0699         estimate D2E/DX2                !
 ! R16   R(13,15)                1.0706         estimate D2E/DX2                !
 ! R17   R(13,16)                1.0704         estimate D2E/DX2                !
 ! R18   R(17,18)                1.2583         estimate D2E/DX2                !
 ! R19   R(17,19)                1.4297         estimate D2E/DX2                !
 ! R20   R(19,20)                1.4305         estimate D2E/DX2                !
 ! R21   R(20,21)                1.0701         estimate D2E/DX2                !
 ! R22   R(20,22)                1.0699         estimate D2E/DX2                !
 ! R23   R(20,23)                1.5398         estimate D2E/DX2                !
 ! R24   R(23,24)                1.07           estimate D2E/DX2                !
 ! R25   R(23,25)                1.0702         estimate D2E/DX2                !
 ! R26   R(23,26)                1.5399         estimate D2E/DX2                !
 ! R27   R(26,27)                1.47           estimate D2E/DX2                !
 ! R28   R(26,31)                1.4703         estimate D2E/DX2                !
 ! R29   R(26,35)                1.4703         estimate D2E/DX2                !
 ! R30   R(27,28)                1.0695         estimate D2E/DX2                !
 ! R31   R(27,29)                1.0705         estimate D2E/DX2                !
 ! R32   R(27,30)                1.0701         estimate D2E/DX2                !
 ! R33   R(31,32)                1.07           estimate D2E/DX2                !
 ! R34   R(31,33)                1.0694         estimate D2E/DX2                !
 ! R35   R(31,34)                1.0704         estimate D2E/DX2                !
 ! R36   R(35,36)                1.0703         estimate D2E/DX2                !
 ! R37   R(35,37)                1.0697         estimate D2E/DX2                !
 ! R38   R(35,38)                1.5389         estimate D2E/DX2                !
 ! R39   R(38,39)                1.0699         estimate D2E/DX2                !
 ! R40   R(38,40)                1.0702         estimate D2E/DX2                !
 ! R41   R(38,41)                1.5403         estimate D2E/DX2                !
 ! R42   R(41,42)                1.2582         estimate D2E/DX2                !
 ! R43   R(41,43)                1.4297         estimate D2E/DX2                !
 ! A1    A(2,1,3)              109.4333         estimate D2E/DX2                !
 ! A2    A(2,1,4)              109.4773         estimate D2E/DX2                !
 ! A3    A(2,1,8)              109.4904         estimate D2E/DX2                !
 ! A4    A(3,1,4)              109.4773         estimate D2E/DX2                !
 ! A5    A(3,1,8)              109.4904         estimate D2E/DX2                !
 ! A6    A(4,1,8)              109.4586         estimate D2E/DX2                !
 ! A7    A(1,4,5)              109.4838         estimate D2E/DX2                !
 ! A8    A(1,4,6)              109.4845         estimate D2E/DX2                !
 ! A9    A(1,4,7)              109.4886         estimate D2E/DX2                !
 ! A10   A(5,4,6)              109.4448         estimate D2E/DX2                !
 ! A11   A(5,4,7)              109.5048         estimate D2E/DX2                !
 ! A12   A(6,4,7)              109.4208         estimate D2E/DX2                !
 ! A13   A(1,8,9)              109.4586         estimate D2E/DX2                !
 ! A14   A(1,8,13)             109.4713         estimate D2E/DX2                !
 ! A15   A(1,8,17)             109.4781         estimate D2E/DX2                !
 ! A16   A(9,8,13)             109.4665         estimate D2E/DX2                !
 ! A17   A(9,8,17)             109.4851         estimate D2E/DX2                !
 ! A18   A(13,8,17)            109.4676         estimate D2E/DX2                !
 ! A19   A(8,9,10)             109.4845         estimate D2E/DX2                !
 ! A20   A(8,9,11)             109.5339         estimate D2E/DX2                !
 ! A21   A(8,9,12)             109.4451         estimate D2E/DX2                !
 ! A22   A(10,9,11)            109.4945         estimate D2E/DX2                !
 ! A23   A(10,9,12)            109.431          estimate D2E/DX2                !
 ! A24   A(11,9,12)            109.4381         estimate D2E/DX2                !
 ! A25   A(8,13,14)            109.484          estimate D2E/DX2                !
 ! A26   A(8,13,15)            109.4504         estimate D2E/DX2                !
 ! A27   A(8,13,16)            109.4541         estimate D2E/DX2                !
 ! A28   A(14,13,15)           109.4895         estimate D2E/DX2                !
 ! A29   A(14,13,16)           109.4907         estimate D2E/DX2                !
 ! A30   A(15,13,16)           109.4586         estimate D2E/DX2                !
 ! A31   A(8,17,18)            120.1812         estimate D2E/DX2                !
 ! A32   A(8,17,19)            119.8644         estimate D2E/DX2                !
 ! A33   A(18,17,19)           119.9544         estimate D2E/DX2                !
 ! A34   A(17,19,20)           109.4798         estimate D2E/DX2                !
 ! A35   A(19,20,21)           109.4535         estimate D2E/DX2                !
 ! A36   A(19,20,22)           109.4341         estimate D2E/DX2                !
 ! A37   A(19,20,23)           109.4359         estimate D2E/DX2                !
 ! A38   A(21,20,22)           109.5031         estimate D2E/DX2                !
 ! A39   A(21,20,23)           109.5114         estimate D2E/DX2                !
 ! A40   A(22,20,23)           109.4893         estimate D2E/DX2                !
 ! A41   A(20,23,24)           109.5272         estimate D2E/DX2                !
 ! A42   A(20,23,25)           109.5134         estimate D2E/DX2                !
 ! A43   A(20,23,26)           109.447          estimate D2E/DX2                !
 ! A44   A(24,23,25)           109.492          estimate D2E/DX2                !
 ! A45   A(24,23,26)           109.4556         estimate D2E/DX2                !
 ! A46   A(25,23,26)           109.392          estimate D2E/DX2                !
 ! A47   A(23,26,27)           109.4798         estimate D2E/DX2                !
 ! A48   A(23,26,31)           109.4969         estimate D2E/DX2                !
 ! A49   A(23,26,35)           109.528          estimate D2E/DX2                !
 ! A50   A(27,26,31)           109.4374         estimate D2E/DX2                !
 ! A51   A(27,26,35)           109.4458         estimate D2E/DX2                !
 ! A52   A(31,26,35)           109.4393         estimate D2E/DX2                !
 ! A53   A(26,27,28)           109.5091         estimate D2E/DX2                !
 ! A54   A(26,27,29)           109.5267         estimate D2E/DX2                !
 ! A55   A(26,27,30)           109.4282         estimate D2E/DX2                !
 ! A56   A(28,27,29)           109.4628         estimate D2E/DX2                !
 ! A57   A(28,27,30)           109.4607         estimate D2E/DX2                !
 ! A58   A(29,27,30)           109.4398         estimate D2E/DX2                !
 ! A59   A(26,31,32)           109.4708         estimate D2E/DX2                !
 ! A60   A(26,31,33)           109.4772         estimate D2E/DX2                !
 ! A61   A(26,31,34)           109.4428         estimate D2E/DX2                !
 ! A62   A(32,31,33)           109.4861         estimate D2E/DX2                !
 ! A63   A(32,31,34)           109.4953         estimate D2E/DX2                !
 ! A64   A(33,31,34)           109.4551         estimate D2E/DX2                !
 ! A65   A(26,35,36)           109.4388         estimate D2E/DX2                !
 ! A66   A(26,35,37)           109.4445         estimate D2E/DX2                !
 ! A67   A(26,35,38)           109.523          estimate D2E/DX2                !
 ! A68   A(36,35,37)           109.4368         estimate D2E/DX2                !
 ! A69   A(36,35,38)           109.479          estimate D2E/DX2                !
 ! A70   A(37,35,38)           109.5051         estimate D2E/DX2                !
 ! A71   A(35,38,39)           109.4833         estimate D2E/DX2                !
 ! A72   A(35,38,40)           109.4587         estimate D2E/DX2                !
 ! A73   A(35,38,41)           109.4987         estimate D2E/DX2                !
 ! A74   A(39,38,40)           109.4332         estimate D2E/DX2                !
 ! A75   A(39,38,41)           109.4927         estimate D2E/DX2                !
 ! A76   A(40,38,41)           109.4605         estimate D2E/DX2                !
 ! A77   A(38,41,42)           120.1919         estimate D2E/DX2                !
 ! A78   A(38,41,43)           119.844          estimate D2E/DX2                !
 ! A79   A(42,41,43)           119.9641         estimate D2E/DX2                !
 ! D1    D(2,1,4,5)            -60.1165         estimate D2E/DX2                !
 ! D2    D(2,1,4,6)             59.867          estimate D2E/DX2                !
 ! D3    D(2,1,4,7)            179.824          estimate D2E/DX2                !
 ! D4    D(3,1,4,5)            179.9224         estimate D2E/DX2                !
 ! D5    D(3,1,4,6)            -60.0941         estimate D2E/DX2                !
 ! D6    D(3,1,4,7)             59.863          estimate D2E/DX2                !
 ! D7    D(8,1,4,5)             59.903          estimate D2E/DX2                !
 ! D8    D(8,1,4,6)            179.8864         estimate D2E/DX2                !
 ! D9    D(8,1,4,7)            -60.1565         estimate D2E/DX2                !
 ! D10   D(2,1,8,9)            -60.028          estimate D2E/DX2                !
 ! D11   D(2,1,8,13)           179.9854         estimate D2E/DX2                !
 ! D12   D(2,1,8,17)            59.9856         estimate D2E/DX2                !
 ! D13   D(3,1,8,9)             59.9491         estimate D2E/DX2                !
 ! D14   D(3,1,8,13)           -60.0375         estimate D2E/DX2                !
 ! D15   D(3,1,8,17)           179.9626         estimate D2E/DX2                !
 ! D16   D(4,1,8,9)            179.9605         estimate D2E/DX2                !
 ! D17   D(4,1,8,13)            59.974          estimate D2E/DX2                !
 ! D18   D(4,1,8,17)           -60.0259         estimate D2E/DX2                !
 ! D19   D(1,8,9,10)           179.9432         estimate D2E/DX2                !
 ! D20   D(1,8,9,11)           -59.9816         estimate D2E/DX2                !
 ! D21   D(1,8,9,12)            60.0003         estimate D2E/DX2                !
 ! D22   D(13,8,9,10)          -60.0673         estimate D2E/DX2                !
 ! D23   D(13,8,9,11)           60.0079         estimate D2E/DX2                !
 ! D24   D(13,8,9,12)          179.9898         estimate D2E/DX2                !
 ! D25   D(17,8,9,10)           59.934          estimate D2E/DX2                !
 ! D26   D(17,8,9,11)         -179.9908         estimate D2E/DX2                !
 ! D27   D(17,8,9,12)          -60.009          estimate D2E/DX2                !
 ! D28   D(1,8,13,14)          -80.2758         estimate D2E/DX2                !
 ! D29   D(1,8,13,15)           39.7417         estimate D2E/DX2                !
 ! D30   D(1,8,13,16)          159.703          estimate D2E/DX2                !
 ! D31   D(9,8,13,14)          159.7425         estimate D2E/DX2                !
 ! D32   D(9,8,13,15)          -80.2401         estimate D2E/DX2                !
 ! D33   D(9,8,13,16)           39.7213         estimate D2E/DX2                !
 ! D34   D(17,8,13,14)          39.7305         estimate D2E/DX2                !
 ! D35   D(17,8,13,15)         159.748          estimate D2E/DX2                !
 ! D36   D(17,8,13,16)         -80.2907         estimate D2E/DX2                !
 ! D37   D(1,8,17,18)         -155.5082         estimate D2E/DX2                !
 ! D38   D(1,8,17,19)           24.4521         estimate D2E/DX2                !
 ! D39   D(9,8,17,18)          -35.5109         estimate D2E/DX2                !
 ! D40   D(9,8,17,19)          144.4494         estimate D2E/DX2                !
 ! D41   D(13,8,17,18)          84.4897         estimate D2E/DX2                !
 ! D42   D(13,8,17,19)         -95.5501         estimate D2E/DX2                !
 ! D43   D(8,17,19,20)        -176.0362         estimate D2E/DX2                !
 ! D44   D(18,17,19,20)          3.9241         estimate D2E/DX2                !
 ! D45   D(17,19,20,21)        -61.3187         estimate D2E/DX2                !
 ! D46   D(17,19,20,22)         58.6868         estimate D2E/DX2                !
 ! D47   D(17,19,20,23)        178.6646         estimate D2E/DX2                !
 ! D48   D(19,20,23,24)        -60.2064         estimate D2E/DX2                !
 ! D49   D(19,20,23,25)         59.8793         estimate D2E/DX2                !
 ! D50   D(19,20,23,26)        179.7932         estimate D2E/DX2                !
 ! D51   D(21,20,23,24)        179.8124         estimate D2E/DX2                !
 ! D52   D(21,20,23,25)        -60.1019         estimate D2E/DX2                !
 ! D53   D(21,20,23,26)         59.812          estimate D2E/DX2                !
 ! D54   D(22,20,23,24)         59.7376         estimate D2E/DX2                !
 ! D55   D(22,20,23,25)        179.8232         estimate D2E/DX2                !
 ! D56   D(22,20,23,26)        -60.2628         estimate D2E/DX2                !
 ! D57   D(20,23,26,27)         60.0765         estimate D2E/DX2                !
 ! D58   D(20,23,26,31)        -59.903          estimate D2E/DX2                !
 ! D59   D(20,23,26,35)       -179.9145         estimate D2E/DX2                !
 ! D60   D(24,23,26,27)        -59.9677         estimate D2E/DX2                !
 ! D61   D(24,23,26,31)       -179.9473         estimate D2E/DX2                !
 ! D62   D(24,23,26,35)         60.0412         estimate D2E/DX2                !
 ! D63   D(25,23,26,27)       -179.9351         estimate D2E/DX2                !
 ! D64   D(25,23,26,31)         60.0853         estimate D2E/DX2                !
 ! D65   D(25,23,26,35)        -59.9262         estimate D2E/DX2                !
 ! D66   D(23,26,27,28)        154.2799         estimate D2E/DX2                !
 ! D67   D(23,26,27,29)        -85.6731         estimate D2E/DX2                !
 ! D68   D(23,26,27,30)         34.296          estimate D2E/DX2                !
 ! D69   D(31,26,27,28)        -85.7041         estimate D2E/DX2                !
 ! D70   D(31,26,27,29)         34.3429         estimate D2E/DX2                !
 ! D71   D(31,26,27,30)        154.312          estimate D2E/DX2                !
 ! D72   D(35,26,27,28)         34.2206         estimate D2E/DX2                !
 ! D73   D(35,26,27,29)        154.2676         estimate D2E/DX2                !
 ! D74   D(35,26,27,30)        -85.7633         estimate D2E/DX2                !
 ! D75   D(23,26,31,32)       -157.9335         estimate D2E/DX2                !
 ! D76   D(23,26,31,33)        -37.9118         estimate D2E/DX2                !
 ! D77   D(23,26,31,34)         82.0546         estimate D2E/DX2                !
 ! D78   D(27,26,31,32)         82.061          estimate D2E/DX2                !
 ! D79   D(27,26,31,33)       -157.9174         estimate D2E/DX2                !
 ! D80   D(27,26,31,34)        -37.9509         estimate D2E/DX2                !
 ! D81   D(35,26,31,32)        -37.8677         estimate D2E/DX2                !
 ! D82   D(35,26,31,33)         82.1539         estimate D2E/DX2                !
 ! D83   D(35,26,31,34)       -157.8796         estimate D2E/DX2                !
 ! D84   D(23,26,35,36)        -60.0675         estimate D2E/DX2                !
 ! D85   D(23,26,35,37)         59.8542         estimate D2E/DX2                !
 ! D86   D(23,26,35,38)        179.9111         estimate D2E/DX2                !
 ! D87   D(27,26,35,36)         59.9623         estimate D2E/DX2                !
 ! D88   D(27,26,35,37)        179.884          estimate D2E/DX2                !
 ! D89   D(27,26,35,38)        -60.0591         estimate D2E/DX2                !
 ! D90   D(31,26,35,36)        179.8858         estimate D2E/DX2                !
 ! D91   D(31,26,35,37)        -60.1925         estimate D2E/DX2                !
 ! D92   D(31,26,35,38)         59.8644         estimate D2E/DX2                !
 ! D93   D(26,35,38,39)        123.1758         estimate D2E/DX2                !
 ! D94   D(26,35,38,40)          3.2225         estimate D2E/DX2                !
 ! D95   D(26,35,38,41)       -116.7736         estimate D2E/DX2                !
 ! D96   D(36,35,38,39)          3.179          estimate D2E/DX2                !
 ! D97   D(36,35,38,40)       -116.7743         estimate D2E/DX2                !
 ! D98   D(36,35,38,41)        123.2297         estimate D2E/DX2                !
 ! D99   D(37,35,38,39)       -116.8044         estimate D2E/DX2                !
 ! D100  D(37,35,38,40)        123.2424         estimate D2E/DX2                !
 ! D101  D(37,35,38,41)          3.2463         estimate D2E/DX2                !
 ! D102  D(35,38,41,42)       -147.0924         estimate D2E/DX2                !
 ! D103  D(35,38,41,43)         32.8496         estimate D2E/DX2                !
 ! D104  D(39,38,41,42)        -27.0475         estimate D2E/DX2                !
 ! D105  D(39,38,41,43)        152.8945         estimate D2E/DX2                !
 ! D106  D(40,38,41,42)         92.9126         estimate D2E/DX2                !
 ! D107  D(40,38,41,43)        -87.1454         estimate D2E/DX2                !
 --------------------------------------------------------------------------------
 Trust Radius=3.00D-01 FncErr=1.00D-07 GrdErr=1.00D-07
 Number of steps in this run= 239 maximum allowed number of steps= 258.
 GradGradGradGradGradGradGradGradGradGradGradGradGradGradGradGradGradGrad

                          Input orientation:                          
 ---------------------------------------------------------------------
 Center     Atomic      Atomic             Coordinates (Angstroms)
 Number     Number       Type             X           Y           Z
 ---------------------------------------------------------------------
      1          6           0       -2.259000    2.109000    0.000000
      2          1           0       -1.902000    2.614000    0.874000
      3          1           0       -1.902000    2.614000   -0.874000
      4          6           0       -3.799000    2.109000    0.000000
      5          1           0       -4.156000    1.603000    0.873000
      6          1           0       -4.156000    3.118000    0.002000
      7          1           0       -4.156000    1.607000   -0.875000
      8          6           0       -1.746000    0.657000    0.000000
      9          6           0       -0.206000    0.657000   -0.001000
     10          1           0        0.151000   -0.352000    0.000000
     11          1           0        0.151000    1.161000   -0.874000
     12          1           0        0.151000    1.162000    0.873000
     13          6           0       -2.260000   -0.069000   -1.257000
     14          1           0       -3.271000   -0.382000   -1.100000
     15          1           0       -2.218000    0.596000   -2.095000
     16          1           0       -1.647000   -0.925000   -1.450000
     17          6           0       -2.259000   -0.069000    1.258000
     18          8           0       -1.635000   -1.062000    1.714000
     19          8           0       -3.447000    0.388000    1.909000
     20          6           0       -3.667000   -0.381000    3.095000
     21          1           0       -3.800000   -1.410000    2.833000
     22          1           0       -2.822000   -0.284000    3.744000
     23          6           0       -4.928000    0.134000    3.813000
     24          1           0       -4.794000    1.162000    4.078000
     25          1           0       -5.773000    0.040000    3.163000
     26          7           0       -5.168000   -0.697000    5.087000
     27          6           0       -4.009000   -0.568000    5.982000
     28          1           0       -4.317000   -0.738000    6.992000
     29          1           0       -3.265000   -1.288000    5.710000
     30          1           0       -3.600000    0.417000    5.895000
     31          6           0       -5.351000   -2.110000    4.724000
     32          1           0       -5.882000   -2.613000    5.505000
     33          1           0       -5.909000   -2.175000    3.814000
     34          1           0       -4.394000   -2.570000    4.589000
     35          6           0       -6.373000   -0.208000    5.773000
     36          1           0       -6.239000    0.820000    6.039000
     37          1           0       -7.216000   -0.300000    5.121000
     38          6           0       -6.614000   -1.040000    7.045000
     39          1           0       -6.647000   -0.391000    7.895000
     40          1           0       -5.818000   -1.745000    7.166000
     41          6           0       -7.952000   -1.793000    6.921000
     42          8           0       -8.653000   -2.010000    7.943000
     43          8           0       -8.398000   -2.245000    5.640000
 ---------------------------------------------------------------------
                    Distance matrix (angstroms):
                    1          2          3          4          5
     1  C    0.000000
     2  H    1.070677   0.000000
     3  H    1.070677   1.748000   0.000000
     4  C    1.540000   2.148839   2.148839   0.000000
     5  H    2.148668   2.470352   3.025665   1.070334   0.000000
     6  H    2.148649   2.468788   2.470204   1.070296   1.747531
     7  H    2.148543   3.025486   2.468717   1.070083   1.748005
     8  C    1.539959   2.148967   2.148967   2.514580   2.732242
     9  C    2.514580   2.733476   2.732836   3.875301   4.154671
    10  H    3.444506   3.711582   3.711582   4.653925   4.809824
    11  H    2.733254   3.062927   2.515158   4.155127   4.668792
    12  H    2.732588   2.514580   3.061882   4.154689   4.329518
    13  C    2.514704   3.444969   2.733741   2.948263   3.305647
    14  H    2.905034   3.840163   3.301705   2.773782   2.935333
    15  H    2.584545   3.603768   2.379710   3.029481   3.684958
    16  H    3.417923   4.241524   3.594624   3.992338   4.252316
    17  C    2.515203   2.733751   3.445484   2.949211   2.557815
    18  O    3.658198   3.780194   4.503555   4.204276   3.763635
    19  O    2.831513   2.900573   3.884223   2.594229   1.747055
    20  C    4.214450   4.125299   5.276193   3.974487   3.018718
    21  H    4.773252   4.861344   5.791099   4.517660   3.611995
    22  H    4.478946   4.181113   5.529080   4.549562   3.685508
    23  C    5.056002   4.893342   6.105329   4.440072   3.376025
    24  H    4.894192   4.553854   5.915596   4.303129   3.297507
    25  H    5.160768   5.181664   6.156906   4.264036   3.209635
    26  N    6.497191   6.275257   7.560622   5.968699   4.906316
    27  C    6.783300   6.376224   7.846611   6.557038   5.553083
    28  H    7.824886   7.382280   8.884936   7.567153   6.553500
    29  H    6.719802   6.361625   7.773830   6.665498   5.705114
    30  H    6.277911   5.737635   7.316377   6.136244   5.190011
    31  C    7.048163   7.002448   8.096257   6.521107   5.481295
    32  H    8.107308   8.037916   9.157159   7.545939   6.496857
    33  H    6.798658   6.901751   7.808195   6.111575   5.098605
    34  H    6.892763   6.847273   7.932735   6.580728   5.592784
    35  C    7.457950   7.207893   8.493299   6.732124   5.674928
    36  H    7.346526   6.978913   8.355691   6.639627   5.624903
    37  H    7.523282   7.400473   8.524671   6.610886   5.570504
    38  C    8.860827   8.581136   9.912882   8.214162   7.149881
    39  H    9.372063   8.991078  10.413473   8.757404   7.712950
    40  H    8.880955   8.597977   9.948745   8.383390   7.319371
    41  C    9.774257   9.622388  10.806765   8.965113   7.907006
    42  O   10.997302  10.813331  12.029001  10.179328   9.124784
    43  O    9.405011   9.408648  10.403850   8.480431   7.451574
                    6          7          8          9         10
     6  H    0.000000
     7  H    1.747069   0.000000
     8  C    3.444506   2.734269   0.000000
     9  C    4.653926   4.155584   1.540000   0.000000
    10  H    5.530927   4.811814   2.148648   1.070295   0.000000
    11  H    4.811182   4.330031   2.148604   1.069390   1.747296
    12  H    4.809868   4.669452   2.148433   1.070677   1.747663
    13  C    3.916231   2.559241   1.539909   2.514663   2.733690
    14  H    3.774603   2.188600   2.148289   3.417828   3.594577
    15  H    3.809690   2.503271   2.148378   2.904600   3.301498
    16  H    4.974860   3.610641   2.148261   2.584339   2.379839
    17  C    3.915752   3.310177   1.540392   2.515346   2.733268
    18  O    5.172889   4.492430   2.430037   2.817486   2.575207
    19  O    3.404736   3.120785   2.571000   3.771544   4.139745
    20  C    4.695612   4.466785   3.787705   4.758275   4.914976
    21  H    5.352017   4.793567   4.064147   5.022040   4.975505
    22  H    5.230270   5.166294   4.007592   4.664114   4.781306
    23  C    4.901424   4.974239   4.993758   6.092406   6.369569
    24  H    4.565825   5.013709   5.116191   6.159790   6.585993
    25  H    4.699010   4.623378   5.157711   6.432968   6.726961
    26  N    6.437049   6.471322   6.278612   7.234812   7.368063
    27  C    7.026280   7.195185   6.511998   7.194423   7.289484
    28  H    7.984658   8.210642   7.579191   8.230941   8.306629
    29  H    7.265534   7.248250   6.220489   6.764320   6.719319
    30  H    6.506304   6.896241   6.184330   6.807323   7.029394
    31  C    7.145439   6.825900   6.555035   7.513517   7.461819
    32  H    8.130587   7.841676   7.622626   8.557214   8.474328
    33  H    6.754273   6.274014   6.316438   7.422847   7.388743
    34  H    7.310989   6.881807   6.203576   7.001498   6.829017
    35  C    7.020100   7.239145   7.448818   8.492302   8.712683
    36  H    6.787125   7.263722   7.528821   8.538458   8.869904
    37  H    6.873899   6.996590   7.553899   8.734462   8.972181
    38  C    8.540174   8.704871   8.729791   9.674109   9.791353
    39  H    8.989862   9.333273   9.351424  10.243613  10.418510
    40  H    8.816684   8.868812   8.585007   9.414353   9.429791
    41  C    9.295165   9.313819   9.613385  10.673195  10.753387
    42  O   10.467993  10.538635  10.858673  11.898396  11.972912
    43  O    8.862470   8.676272   9.191317  10.361050  10.415299
                   11         12         13         14         15
    11  H    0.000000
    12  H    1.747000   0.000000
    13  C    2.733589   3.444587   0.000000
    14  H    3.760586   4.241079   1.069925   0.000000
    15  H    2.724376   3.839471   1.070623   1.747947   0.000000
    16  H    2.813534   3.603429   1.070399   1.747777   1.748001
    17  C    3.444768   2.733438   2.515000   2.585010   3.418555
    18  O    3.850879   2.973761   3.194294   3.325281   4.194918
    19  O    4.613916   3.823346   3.411946   3.110941   4.193533
    20  C    5.719078   4.679237   4.584419   4.213649   5.476334
    21  H    5.996857   5.105603   4.571431   4.099404   5.550851
    22  H    5.679144   4.378617   5.037070   4.865752   5.935751
    23  C    6.987055   5.957904   5.732742   5.210516   6.516288
    24  H    6.998238   5.892796   6.033137   5.613835   6.712828
    25  H    7.255879   6.449555   5.647074   4.960973   6.371321
    26  N    8.202283   7.036010   7.006938   6.478951   7.871180
    27  C    8.203644   6.811783   7.463988   7.122778   8.354670
    28  H    9.243548   7.811222   8.527884   8.167087   9.421196
    29  H    7.811256   6.408442   7.143884   6.870005   8.097141
    30  H    7.774503   6.312330   7.292661   7.048168   8.110614
    31  C    8.503473   7.470488   7.035078   6.421165   7.977273
    32  H    9.556768   8.491357   8.081798   7.444509   9.026770
    33  H    8.356425   7.517224   6.592835   5.858437   7.497880
    34  H    8.026316   6.956544   6.707061   6.197838   7.709370
    35  C    9.413785   8.273420   8.145980   7.542600   8.933973
    36  H    9.420082   8.224149   8.357893   7.824267   9.076374
    37  H    9.609747   8.628768   8.080481   7.366858   8.823462
    38  C   10.645195   9.418472   9.424615   8.828909  10.273311
    39  H   11.203431   9.896115  10.154238   9.607678  10.972252
    40  H   10.426668   9.147757   9.295981   8.756240  10.208154
    41  C   11.625263  10.534180  10.111910   9.393568  10.948714
    42  O   12.857105  11.728465  11.370045  10.648575  12.204995
    43  O   11.274681  10.364234   9.485707   8.670899  10.300190
                   16         17         18         19         20
    16  H    0.000000
    17  C    2.905261   0.000000
    18  O    3.166987   1.258317   0.000000
    19  O    4.030738   1.429683   2.328920   0.000000
    20  C    5.003335   2.335461   2.549499   1.430509   0.000000
    21  H    4.818166   2.579455   2.461806   2.052118   1.070128
    22  H    5.363687   2.558005   2.476924   2.051691   1.069876
    23  C    6.291710   3.700378   4.084124   2.425509   1.539763
    24  H    6.694622   3.986726   4.529233   2.667967   2.148783
    25  H    6.263774   3.998638   4.520735   2.665313   2.148744
    26  N    7.428445   4.849526   4.898208   3.773427   2.514144
    27  C    7.806479   5.062379   4.908741   4.221269   2.913194
    28  H    8.856141   6.128759   5.929198   5.278415   3.966933
    29  H    7.349510   4.724225   4.321573   4.158089   2.796869
    30  H    7.717785   4.851417   4.850714   3.989041   2.912266
    31  C    7.296720   5.073391   4.895616   4.217754   2.911862
    32  H    8.316044   6.134743   5.900364   5.278867   3.961837
    33  H    6.887441   4.928577   4.890383   4.032299   2.960061
    34  H    6.835317   4.680682   4.260489   4.102313   2.748142
    35  C    8.661460   6.109791   6.297098   4.883358   3.811043
    36  H    8.956373   6.284002   6.591234   5.003877   4.089587
    37  H    8.636112   6.288718   6.582997   4.999565   4.087375
    38  C    9.841206   7.307410   7.294552   6.200610   4.972081
    39  H   10.611983   7.962914   7.985934   6.832206   5.649823
    40  H    9.607554   7.097881   6.905670   6.148771   4.802118
    41  C   10.515707   8.212916   8.218984   7.083215   5.915509
    42  O   11.768165   9.451981   9.431409   8.322379   7.142614
    43  O    9.878588   7.850110   7.908927   6.735388   5.686289
                   21         22         23         24         25
    21  H    0.000000
    22  H    1.747650   0.000000
    23  C    2.148655   2.148190   0.000000
    24  H    3.025433   2.468047   1.070030   0.000000
    25  H    2.470654   3.025052   1.070215   1.747727   0.000000
    26  N    2.731357   2.734581   1.539882   2.147985   2.147317
    27  C    3.266320   2.549170   2.458033   2.689673   3.380550
    28  H    4.244544   3.604254   3.352573   3.511257   4.169708
    29  H    2.928863   2.251537   2.895904   3.317192   3.813248
    30  H    3.571243   2.392381   2.485638   2.298293   3.511108
    31  C    2.543911   3.269636   2.458533   3.381353   2.690224
    32  H    3.594651   4.229534   3.364371   4.179796   3.540516
    33  H    2.448564   3.620822   2.508753   3.528242   2.312687
    34  H    2.186772   2.900173   2.863381   3.788000   3.278295
    35  C    4.087632   4.090503   2.458981   2.691313   2.689536
    36  H    4.604352   4.261658   2.672900   2.459778   3.016112
    37  H    4.258650   4.604739   2.670986   3.015191   2.455934
    38  C    5.079020   5.084034   3.829712   4.118773   4.116261
    39  H    5.896407   5.645607   4.460192   4.518286   4.831300
    40  H    4.791601   4.777093   3.945295   4.362908   4.383179
    41  C    5.839310   6.219912   4.745268   5.175678   4.714922
    42  O    7.072744   7.389942   5.960643   6.315987   5.945191
    43  O    5.451429   6.207424   4.586771   5.199645   4.271695
                   26         27         28         29         30
    26  N    0.000000
    27  C    1.470016   0.000000
    28  H    2.086841   1.069516   0.000000
    29  H    2.087778   1.070477   1.747206   0.000000
    30  H    2.086261   1.070082   1.746861   1.747420   0.000000
    31  C    1.470315   2.400269   2.845235   2.449342   3.289828
    32  H    2.087002   2.813838   2.859374   2.940466   3.813204
    33  H    2.086647   3.300405   3.833943   3.372287   4.047284
    34  H    2.086914   2.469145   3.022675   2.043234   3.355330
    35  C    1.470286   2.400370   2.448264   3.290902   2.845178
    36  H    2.086776   2.627298   2.651350   3.660134   2.673475
    37  H    2.086401   3.331365   3.478029   4.115029   3.766779
    38  C    2.458115   2.852854   2.317374   3.613797   3.539710
    39  H    3.188407   3.263425   2.522839   4.125137   3.733239
    40  H    2.417239   2.461639   1.815854   2.974322   3.348016
    41  C    3.509334   4.234335   3.785669   4.867188   4.987653
    42  O    4.693179   5.243245   4.617714   5.876914   5.968035
    43  O    3.624226   4.710904   4.555602   5.221919   5.492911
                   31         32         33         34         35
    31  C    0.000000
    32  H    1.070014   0.000000
    33  H    1.069434   1.747013   0.000000
    34  H    1.070362   1.747870   1.746962   0.000000
    35  C    2.400518   2.469196   2.814616   3.301112   0.000000
    36  H    3.332067   3.492577   3.745604   4.122939   1.070278
    37  H    2.629056   2.697588   2.632893   3.660548   1.069681
    38  C    2.850809   2.319861   3.496371   3.647086   1.538925
    39  H    3.832730   3.351807   4.514627   4.555621   2.147428
    40  H    2.512902   1.875218   3.380693   3.057667   2.147287
    41  C    3.419430   2.638628   3.738077   4.324502   2.514631
    42  O    4.612501   3.739772   4.960383   5.449954   3.626914
    43  O    3.184571   2.546351   3.087766   4.152378   2.875358
                   36         37         38         39         40
    36  H    0.000000
    37  H    1.746898   0.000000
    38  C    2.147618   2.147506   0.000000
    39  H    2.253380   2.833217   1.069949   0.000000
    40  H    2.833125   2.867831   1.070178   1.746997   0.000000
    41  C    3.246546   2.451682   1.540334   2.148792   2.148554
    42  O    4.178697   3.598993   2.429985   2.578275   2.951471
    43  O    3.770240   2.334419   2.570740   3.404165   3.038927
                   41         42         43
    41  C    0.000000
    42  O    1.258163   0.000000
    43  O    1.429749   2.328961   0.000000
 Symmetry turned off by external request.
 Stoichiometry    C13H25NO4
 Framework group  C1[X(C13H25NO4)]
 Deg. of freedom   123
 Full point group                 C1      NOp   1
 Rotational constants (GHZ):      1.1317391      0.1315659      0.1284868
 Standard basis: 6-31G(d) (6D, 7F)
 Integral buffers will be    131072 words long.
 Raffenetti 1 integral format.
 Two-electron integral symmetry is turned off.
   320 basis functions,   604 primitive gaussians,   320 cartesian basis functions
    71 alpha electrons       71 beta electrons
       nuclear repulsion energy      1414.2326858156 Hartrees.
 NAtoms=   43 NActive=   43 NUniq=   43 SFac= 7.50D-01 NAtFMM=   80 NAOKFM=F Big=F
 One-electron integrals computed using PRISM.
 NBasis=   320 RedAO= T  NBF=   320
 NBsUse=   320 1.00D-06 NBFU=   320
 Harris functional with IExCor=  205 diagonalized for initial guess.
 ExpMin= 1.61D-01 ExpMax= 5.48D+03 ExpMxC= 8.25D+02 IAcc=1 IRadAn=         1 AccDes= 0.00D+00
 HarFok:  IExCor=  205 AccDes= 0.00D+00 IRadAn=         1 IDoV= 1
 ScaDFX=  1.000000  1.000000  1.000000  1.000000
 FoFCou: FMM=F IPFlag=           0 FMFlag=      100000 FMFlg1=           0
         NFxFlg=           0 DoJE=T BraDBF=F KetDBF=T FulRan=T
         Omega=  0.000000  0.000000  1.000000  0.000000  0.000000 ICntrl=     500 IOpCl=  0
         NMat0=    1 NMatS0=    1 NMatT0=    0 NMatD0=    1 NMtDS0=    0 NMtDT0=    0
         I1Cent=           4 NGrid=           0.
 Symmetry not used in FoFCou.
 Requested convergence on RMS density matrix=1.00D-08 within 128 cycles.
 Requested convergence on MAX density matrix=1.00D-06.
 Requested convergence on             energy=1.00D-06.
 No special actions if energy rises.
 Integral accuracy reduced to 1.0D-05 until final iterations.
 Initial convergence to 1.0D-05 achieved.  Increase integral accuracy.
 SCF Done:  E(RHF) =  -860.576677026     A.U. after   15 cycles
             Convg  =    0.9257D-08             -V/T =  2.0016

 **********************************************************************

            Population analysis using the SCF density.

 **********************************************************************

 Alpha  occ. eigenvalues --  -20.66497 -20.59886 -20.43799 -20.40772 -15.74841
 Alpha  occ. eigenvalues --  -11.43575 -11.34847 -11.34652 -11.33027 -11.30465
 Alpha  occ. eigenvalues --  -11.29987 -11.28758 -11.28511 -11.24518 -11.24494
 Alpha  occ. eigenvalues --  -11.23722 -11.23439 -11.21317  -1.48326  -1.40183
 Alpha  occ. eigenvalues --   -1.38055  -1.26537  -1.15318  -1.12631  -1.10984
 Alpha  occ. eigenvalues --   -1.07176  -1.06062  -1.02706  -1.00560  -0.97507
 Alpha  occ. eigenvalues --   -0.93323  -0.90141  -0.87028  -0.86021  -0.80458
 Alpha  occ. eigenvalues --   -0.76764  -0.76584  -0.73688  -0.73005  -0.71524
 Alpha  occ. eigenvalues --   -0.70189  -0.68866  -0.65772  -0.65133  -0.64603
 Alpha  occ. eigenvalues --   -0.63621  -0.63260  -0.62318  -0.61221  -0.60237
 Alpha  occ. eigenvalues --   -0.60013  -0.59629  -0.58678  -0.57540  -0.56843
 Alpha  occ. eigenvalues --   -0.56347  -0.55743  -0.55186  -0.54172  -0.53893
 Alpha  occ. eigenvalues --   -0.52232  -0.50707  -0.49645  -0.48552  -0.47969
 Alpha  occ. eigenvalues --   -0.46849  -0.46696  -0.43024  -0.32859  -0.30762
 Alpha  occ. eigenvalues --   -0.29120
 Alpha virt. eigenvalues --    0.12146   0.15765   0.18017   0.19593   0.20694
 Alpha virt. eigenvalues --    0.21438   0.21699   0.23398   0.24102   0.24282
 Alpha virt. eigenvalues --    0.25331   0.25464   0.26164   0.26562   0.27239
 Alpha virt. eigenvalues --    0.27411   0.28033   0.28932   0.29321   0.30284
 Alpha virt. eigenvalues --    0.30890   0.32044   0.32591   0.32895   0.33419
 Alpha virt. eigenvalues --    0.33528   0.33695   0.34812   0.35237   0.36504
 Alpha virt. eigenvalues --    0.36737   0.37826   0.39334   0.39635   0.40758
 Alpha virt. eigenvalues --    0.41357   0.42485   0.43105   0.45080   0.49651
 Alpha virt. eigenvalues --    0.49867   0.51820   0.58535   0.59527   0.64964
 Alpha virt. eigenvalues --    0.66345   0.67170   0.67466   0.68219   0.69689
 Alpha virt. eigenvalues --    0.71071   0.71475   0.71617   0.73224   0.75503
 Alpha virt. eigenvalues --    0.77816   0.78624   0.80220   0.80627   0.80974
 Alpha virt. eigenvalues --    0.82005   0.83819   0.84529   0.86836   0.87663
 Alpha virt. eigenvalues --    0.89297   0.90317   0.90661   0.92061   0.93154
 Alpha virt. eigenvalues --    0.93539   0.94461   0.94636   0.97277   0.98270
 Alpha virt. eigenvalues --    0.99710   1.00209   1.02188   1.02783   1.04109
 Alpha virt. eigenvalues --    1.04458   1.06025   1.07085   1.07512   1.08196
 Alpha virt. eigenvalues --    1.08735   1.09227   1.10799   1.11195   1.13117
 Alpha virt. eigenvalues --    1.14047   1.14975   1.15344   1.15508   1.15907
 Alpha virt. eigenvalues --    1.16243   1.16593   1.17446   1.18235   1.18469
 Alpha virt. eigenvalues --    1.18895   1.20144   1.20800   1.21335   1.21883
 Alpha virt. eigenvalues --    1.22331   1.22770   1.23600   1.24730   1.25705
 Alpha virt. eigenvalues --    1.26366   1.26823   1.28312   1.30402   1.31066
 Alpha virt. eigenvalues --    1.31922   1.33683   1.37532   1.39899   1.41151
 Alpha virt. eigenvalues --    1.43086   1.45465   1.46630   1.47284   1.49436
 Alpha virt. eigenvalues --    1.52088   1.52631   1.55520   1.56520   1.59314
 Alpha virt. eigenvalues --    1.61474   1.62312   1.64591   1.65415   1.70388
 Alpha virt. eigenvalues --    1.71102   1.73377   1.76769   1.79151   1.81817
 Alpha virt. eigenvalues --    1.83986   1.85166   1.86618   1.87161   1.89905
 Alpha virt. eigenvalues --    1.91871   1.93260   1.94213   1.95660   1.99265
 Alpha virt. eigenvalues --    2.01571   2.04154   2.05149   2.07325   2.09389
 Alpha virt. eigenvalues --    2.09811   2.10078   2.10471   2.13277   2.14570
 Alpha virt. eigenvalues --    2.15956   2.17239   2.18392   2.18779   2.20208
 Alpha virt. eigenvalues --    2.21990   2.22356   2.23126   2.24261   2.25867
 Alpha virt. eigenvalues --    2.27716   2.28288   2.28773   2.30651   2.31260
 Alpha virt. eigenvalues --    2.31822   2.32354   2.34373   2.35634   2.39044
 Alpha virt. eigenvalues --    2.39656   2.40775   2.41072   2.42373   2.42922
 Alpha virt. eigenvalues --    2.44192   2.46091   2.47666   2.48996   2.50463
 Alpha virt. eigenvalues --    2.52560   2.53049   2.54287   2.56609   2.57284
 Alpha virt. eigenvalues --    2.60511   2.60968   2.63511   2.63680   2.65498
 Alpha virt. eigenvalues --    2.66738   2.68182   2.68922   2.71895   2.73680
 Alpha virt. eigenvalues --    2.75121   2.77662   2.80199   2.82322   2.85066
 Alpha virt. eigenvalues --    2.86803   2.88521   2.89391   2.91846   2.94854
 Alpha virt. eigenvalues --    2.99068   3.00438   3.02365   3.03116   3.03801
 Alpha virt. eigenvalues --    3.06349   3.07086   3.10802   3.14501   3.17470
 Alpha virt. eigenvalues --    3.26989   3.27165   3.35127   3.42089   3.44204
 Alpha virt. eigenvalues --    3.47128   4.32146   4.42590   4.49498   4.55628
 Alpha virt. eigenvalues --    4.57416   4.61172   4.65249   4.67718   4.69009
 Alpha virt. eigenvalues --    4.70319   4.72411   4.74663   4.75545   4.85238
 Alpha virt. eigenvalues --    4.87104   4.94491   5.03369   5.14834
          Condensed to atoms (all electrons):
              1          2          3          4          5          6
     1  C    5.139663   0.401968   0.402580   0.332343  -0.040924  -0.037197
     2  H    0.401968   0.540174  -0.024093  -0.039417  -0.001608  -0.002613
     3  H    0.402580  -0.024093   0.516261  -0.036073   0.003536  -0.003083
     4  C    0.332343  -0.039417  -0.036073   5.199815   0.408961   0.392386
     5  H   -0.040924  -0.001608   0.003536   0.408961   0.470764  -0.021974
     6  H   -0.037197  -0.002613  -0.003083   0.392386  -0.021974   0.526370
     7  H   -0.039974   0.004075  -0.002139   0.394539  -0.025332  -0.023712
     8  C    0.346121  -0.045722  -0.037365  -0.060209  -0.003870   0.005186
     9  C   -0.073175  -0.003598  -0.003174   0.005151  -0.000119  -0.000095
    10  H    0.005044  -0.000060  -0.000045  -0.000132   0.000002   0.000002
    11  H   -0.004893  -0.000032   0.002000  -0.000025   0.000002  -0.000001
    12  H   -0.003037   0.002833  -0.000016  -0.000071   0.000002  -0.000001
    13  C   -0.060401   0.005215  -0.005112  -0.007077   0.000025  -0.000001
    14  H   -0.002271  -0.000191   0.000105  -0.000842   0.000216   0.000072
    15  H   -0.005212   0.000114   0.002926  -0.001392   0.000109  -0.000075
    16  H    0.004684  -0.000095  -0.000103   0.000196  -0.000042   0.000001
    17  C   -0.067961  -0.003015   0.005035  -0.005844   0.003368  -0.000069
    18  O    0.002099  -0.000007  -0.000049  -0.000161   0.000107   0.000001
    19  O    0.007408   0.001438  -0.000110  -0.049382  -0.026904   0.000917
    20  C   -0.000390  -0.000122   0.000010   0.002228   0.001950  -0.000041
    21  H    0.000032   0.000004   0.000000  -0.000119   0.000025   0.000000
    22  H   -0.000042  -0.000002  -0.000001  -0.000101   0.000014   0.000002
    23  C   -0.000050  -0.000004   0.000000   0.000072  -0.000388   0.000001
    24  H    0.000004   0.000005   0.000000  -0.000037   0.000113   0.000001
    25  H   -0.000001   0.000000   0.000000  -0.000048   0.000155   0.000003
    26  N    0.000000   0.000000   0.000000   0.000000   0.000004   0.000000
    27  C    0.000000   0.000000   0.000000   0.000000   0.000000   0.000000
    28  H    0.000000   0.000000   0.000000   0.000000   0.000000   0.000000
    29  H    0.000000   0.000000   0.000000   0.000000   0.000000   0.000000
    30  H    0.000000   0.000000   0.000000   0.000000   0.000000   0.000000
    31  C    0.000000   0.000000   0.000000   0.000000   0.000000   0.000000
    32  H    0.000000   0.000000   0.000000   0.000000   0.000000   0.000000
    33  H    0.000000   0.000000   0.000000   0.000000   0.000000   0.000000
    34  H    0.000000   0.000000   0.000000   0.000000   0.000000   0.000000
    35  C    0.000000   0.000000   0.000000   0.000000  -0.000001   0.000000
    36  H    0.000000   0.000000   0.000000   0.000000   0.000000   0.000000
    37  H    0.000000   0.000000   0.000000   0.000000   0.000000   0.000000
    38  C    0.000000   0.000000   0.000000   0.000000   0.000000   0.000000
    39  H    0.000000   0.000000   0.000000   0.000000   0.000000   0.000000
    40  H    0.000000   0.000000   0.000000   0.000000   0.000000   0.000000
    41  C    0.000000   0.000000   0.000000   0.000000   0.000000   0.000000
    42  O    0.000000   0.000000   0.000000   0.000000   0.000000   0.000000
    43  O    0.000000   0.000000   0.000000   0.000000   0.000000   0.000000
              7          8          9         10         11         12
     1  C   -0.039974   0.346121  -0.073175   0.005044  -0.004893  -0.003037
     2  H    0.004075  -0.045722  -0.003598  -0.000060  -0.000032   0.002833
     3  H   -0.002139  -0.037365  -0.003174  -0.000045   0.002000  -0.000016
     4  C    0.394539  -0.060209   0.005151  -0.000132  -0.000025  -0.000071
     5  H   -0.025332  -0.003870  -0.000119   0.000002   0.000002   0.000002
     6  H   -0.023712   0.005186  -0.000095   0.000002  -0.000001  -0.000001
     7  H    0.537132  -0.006642  -0.000127   0.000001   0.000001   0.000001
     8  C   -0.006642   5.238475   0.368743  -0.033756  -0.038088  -0.039074
     9  C   -0.000127   0.368743   5.096072   0.392430   0.394522   0.394408
    10  H    0.000001  -0.033756   0.392430   0.484760  -0.024467  -0.021582
    11  H    0.000001  -0.038088   0.394522  -0.024467   0.516993  -0.025102
    12  H    0.000001  -0.039074   0.394408  -0.021582  -0.025102   0.522700
    13  C    0.000535   0.333564  -0.059580  -0.004091  -0.003603   0.005004
    14  H   -0.002937  -0.039092   0.004571  -0.000065   0.000015  -0.000129
    15  H   -0.000091  -0.039196  -0.001218   0.000042   0.000937  -0.000117
    16  H    0.000249  -0.037610  -0.005918   0.002742  -0.000102   0.000091
    17  C    0.000098   0.353303  -0.053592  -0.005538   0.005511  -0.004286
    18  O   -0.000004  -0.063707  -0.001812   0.004393   0.000268   0.000460
    19  O    0.000829  -0.051784   0.001436   0.000055  -0.000023   0.000024
    20  C   -0.000060   0.002997  -0.000145  -0.000007   0.000003  -0.000021
    21  H    0.000008  -0.000066  -0.000011   0.000000   0.000000   0.000000
    22  H    0.000000   0.000124   0.000023  -0.000003   0.000000   0.000003
    23  C    0.000000   0.000085   0.000000   0.000000   0.000000   0.000000
    24  H    0.000001  -0.000010   0.000000   0.000000   0.000000   0.000000
    25  H    0.000000  -0.000002   0.000000   0.000000   0.000000   0.000000
    26  N    0.000000   0.000000   0.000000   0.000000   0.000000   0.000000
    27  C    0.000000   0.000000   0.000000   0.000000   0.000000   0.000000
    28  H    0.000000   0.000000   0.000000   0.000000   0.000000   0.000000
    29  H    0.000000   0.000000   0.000000   0.000000   0.000000   0.000000
    30  H    0.000000   0.000000   0.000000   0.000000   0.000000   0.000000
    31  C    0.000000   0.000000   0.000000   0.000000   0.000000   0.000000
    32  H    0.000000   0.000000   0.000000   0.000000   0.000000   0.000000
    33  H    0.000000   0.000000   0.000000   0.000000   0.000000   0.000000
    34  H    0.000000   0.000000   0.000000   0.000000   0.000000   0.000000
    35  C    0.000000   0.000000   0.000000   0.000000   0.000000   0.000000
    36  H    0.000000   0.000000   0.000000   0.000000   0.000000   0.000000
    37  H    0.000000   0.000000   0.000000   0.000000   0.000000   0.000000
    38  C    0.000000   0.000000   0.000000   0.000000   0.000000   0.000000
    39  H    0.000000   0.000000   0.000000   0.000000   0.000000   0.000000
    40  H    0.000000   0.000000   0.000000   0.000000   0.000000   0.000000
    41  C    0.000000   0.000000   0.000000   0.000000   0.000000   0.000000
    42  O    0.000000   0.000000   0.000000   0.000000   0.000000   0.000000
    43  O    0.000000   0.000000   0.000000   0.000000   0.000000   0.000000
             13         14         15         16         17         18
     1  C   -0.060401  -0.002271  -0.005212   0.004684  -0.067961   0.002099
     2  H    0.005215  -0.000191   0.000114  -0.000095  -0.003015  -0.000007
     3  H   -0.005112   0.000105   0.002926  -0.000103   0.005035  -0.000049
     4  C   -0.007077  -0.000842  -0.001392   0.000196  -0.005844  -0.000161
     5  H    0.000025   0.000216   0.000109  -0.000042   0.003368   0.000107
     6  H   -0.000001   0.000072  -0.000075   0.000001  -0.000069   0.000001
     7  H    0.000535  -0.002937  -0.000091   0.000249   0.000098  -0.000004
     8  C    0.333564  -0.039092  -0.039196  -0.037610   0.353303  -0.063707
     9  C   -0.059580   0.004571  -0.001218  -0.005918  -0.053592  -0.001812
    10  H   -0.004091  -0.000065   0.000042   0.002742  -0.005538   0.004393
    11  H   -0.003603   0.000015   0.000937  -0.000102   0.005511   0.000268
    12  H    0.005004  -0.000129  -0.000117   0.000091  -0.004286   0.000460
    13  C    5.141394   0.395140   0.396643   0.397295  -0.052546   0.001457
    14  H    0.395140   0.514807  -0.023388  -0.023608  -0.004391  -0.000133
    15  H    0.396643  -0.023388   0.500769  -0.023227   0.004980  -0.000031
    16  H    0.397295  -0.023608  -0.023227   0.493510  -0.003129   0.001186
    17  C   -0.052546  -0.004391   0.004980  -0.003129   4.276065   0.510032
    18  O    0.001457  -0.000133  -0.000031   0.001186   0.510032   8.201074
    19  O    0.000610   0.001410  -0.000054   0.000009   0.220189  -0.066026
    20  C   -0.000209  -0.000059   0.000005  -0.000007  -0.029367  -0.005536
    21  H    0.000026  -0.000021   0.000000   0.000000  -0.004156   0.004348
    22  H   -0.000008   0.000004   0.000000   0.000000  -0.004138   0.004368
    23  C   -0.000001   0.000001   0.000000   0.000000   0.004131   0.001128
    24  H    0.000000   0.000000   0.000000   0.000000  -0.000169  -0.000010
    25  H    0.000000   0.000001   0.000000   0.000000  -0.000162  -0.000009
    26  N    0.000000   0.000000   0.000000   0.000000  -0.000054   0.000011
    27  C    0.000000   0.000000   0.000000   0.000000  -0.000025  -0.000016
    28  H    0.000000   0.000000   0.000000   0.000000   0.000000   0.000000
    29  H    0.000000   0.000000   0.000000   0.000000   0.000007   0.000009
    30  H    0.000000   0.000000   0.000000   0.000000  -0.000004  -0.000001
    31  C    0.000000   0.000000   0.000000   0.000000  -0.000018  -0.000017
    32  H    0.000000   0.000000   0.000000   0.000000   0.000000   0.000000
    33  H    0.000000   0.000000   0.000000   0.000000  -0.000005  -0.000001
    34  H    0.000000   0.000000   0.000000   0.000000   0.000017   0.000010
    35  C    0.000000   0.000000   0.000000   0.000000   0.000002   0.000000
    36  H    0.000000   0.000000   0.000000   0.000000   0.000000   0.000000
    37  H    0.000000   0.000000   0.000000   0.000000   0.000000   0.000000
    38  C    0.000000   0.000000   0.000000   0.000000   0.000000   0.000000
    39  H    0.000000   0.000000   0.000000   0.000000   0.000000   0.000000
    40  H    0.000000   0.000000   0.000000   0.000000   0.000000   0.000000
    41  C    0.000000   0.000000   0.000000   0.000000   0.000000   0.000000
    42  O    0.000000   0.000000   0.000000   0.000000   0.000000   0.000000
    43  O    0.000000   0.000000   0.000000   0.000000   0.000000   0.000000
             19         20         21         22         23         24
     1  C    0.007408  -0.000390   0.000032  -0.000042  -0.000050   0.000004
     2  H    0.001438  -0.000122   0.000004  -0.000002  -0.000004   0.000005
     3  H   -0.000110   0.000010   0.000000  -0.000001   0.000000   0.000000
     4  C   -0.049382   0.002228  -0.000119  -0.000101   0.000072  -0.000037
     5  H   -0.026904   0.001950   0.000025   0.000014  -0.000388   0.000113
     6  H    0.000917  -0.000041   0.000000   0.000002   0.000001   0.000001
     7  H    0.000829  -0.000060   0.000008   0.000000   0.000000   0.000001
     8  C   -0.051784   0.002997  -0.000066   0.000124   0.000085  -0.000010
     9  C    0.001436  -0.000145  -0.000011   0.000023   0.000000   0.000000
    10  H    0.000055  -0.000007   0.000000  -0.000003   0.000000   0.000000
    11  H   -0.000023   0.000003   0.000000   0.000000   0.000000   0.000000
    12  H    0.000024  -0.000021   0.000000   0.000003   0.000000   0.000000
    13  C    0.000610  -0.000209   0.000026  -0.000008  -0.000001   0.000000
    14  H    0.001410  -0.000059  -0.000021   0.000004   0.000001   0.000000
    15  H   -0.000054   0.000005   0.000000   0.000000   0.000000   0.000000
    16  H    0.000009  -0.000007   0.000000   0.000000   0.000000   0.000000
    17  C    0.220189  -0.029367  -0.004156  -0.004138   0.004131  -0.000169
    18  O   -0.066026  -0.005536   0.004348   0.004368   0.001128  -0.000010
    19  O    8.577488   0.165420  -0.030287  -0.031516  -0.030299   0.002127
    20  C    0.165420   4.850603   0.407063   0.405216   0.322192  -0.035978
    21  H   -0.030287   0.407063   0.482665  -0.031891  -0.042008   0.003322
    22  H   -0.031516   0.405216  -0.031891   0.505395  -0.044550  -0.003133
    23  C   -0.030299   0.322192  -0.042008  -0.044550   5.106780   0.397574
    24  H    0.002127  -0.035978   0.003322  -0.003133   0.397574   0.454390
    25  H    0.001784  -0.032951  -0.002909   0.003257   0.397017  -0.018753
    26  N    0.001403  -0.041701  -0.000568  -0.000411   0.209011  -0.032002
    27  C   -0.000135  -0.007422  -0.000547   0.001903  -0.039974  -0.003001
    28  H   -0.000001   0.000419  -0.000045   0.000351   0.002228  -0.000102
    29  H    0.000010  -0.000901   0.000146  -0.002703  -0.001774   0.000145
    30  H    0.000004  -0.003142   0.000092  -0.000452  -0.002285   0.001341
    31  C   -0.000113  -0.006857   0.001940  -0.000639  -0.041909   0.003588
    32  H   -0.000001   0.000300   0.000264  -0.000040   0.001750  -0.000038
    33  H    0.000003  -0.003274  -0.000060   0.000083  -0.000126   0.000215
    34  H    0.000014   0.000007  -0.003576   0.000167  -0.004837  -0.000192
    35  C   -0.000020   0.003382  -0.000209  -0.000178  -0.058967  -0.002335
    36  H   -0.000001  -0.000014  -0.000001   0.000006  -0.004051   0.002056
    37  H   -0.000001   0.000041   0.000004   0.000000  -0.002051  -0.000075
    38  C    0.000000  -0.000140   0.000006   0.000003   0.004431  -0.000091
    39  H    0.000000   0.000002   0.000000   0.000000  -0.000073  -0.000007
    40  H    0.000000  -0.000016   0.000000  -0.000001   0.000012   0.000007
    41  C    0.000000   0.000003  -0.000001   0.000000  -0.000232   0.000003
    42  O    0.000000   0.000000   0.000000   0.000000   0.000000   0.000000
    43  O    0.000000   0.000001  -0.000001   0.000000  -0.000030   0.000000
             25         26         27         28         29         30
     1  C   -0.000001   0.000000   0.000000   0.000000   0.000000   0.000000
     2  H    0.000000   0.000000   0.000000   0.000000   0.000000   0.000000
     3  H    0.000000   0.000000   0.000000   0.000000   0.000000   0.000000
     4  C   -0.000048   0.000000   0.000000   0.000000   0.000000   0.000000
     5  H    0.000155   0.000004   0.000000   0.000000   0.000000   0.000000
     6  H    0.000003   0.000000   0.000000   0.000000   0.000000   0.000000
     7  H    0.000000   0.000000   0.000000   0.000000   0.000000   0.000000
     8  C   -0.000002   0.000000   0.000000   0.000000   0.000000   0.000000
     9  C    0.000000   0.000000   0.000000   0.000000   0.000000   0.000000
    10  H    0.000000   0.000000   0.000000   0.000000   0.000000   0.000000
    11  H    0.000000   0.000000   0.000000   0.000000   0.000000   0.000000
    12  H    0.000000   0.000000   0.000000   0.000000   0.000000   0.000000
    13  C    0.000000   0.000000   0.000000   0.000000   0.000000   0.000000
    14  H    0.000001   0.000000   0.000000   0.000000   0.000000   0.000000
    15  H    0.000000   0.000000   0.000000   0.000000   0.000000   0.000000
    16  H    0.000000   0.000000   0.000000   0.000000   0.000000   0.000000
    17  C   -0.000162  -0.000054  -0.000025   0.000000   0.000007  -0.000004
    18  O   -0.000009   0.000011  -0.000016   0.000000   0.000009  -0.000001
    19  O    0.001784   0.001403  -0.000135  -0.000001   0.000010   0.000004
    20  C   -0.032951  -0.041701  -0.007422   0.000419  -0.000901  -0.003142
    21  H   -0.002909  -0.000568  -0.000547  -0.000045   0.000146   0.000092
    22  H    0.003257  -0.000411   0.001903   0.000351  -0.002703  -0.000452
    23  C    0.397017   0.209011  -0.039974   0.002228  -0.001774  -0.002285
    24  H   -0.018753  -0.032002  -0.003001  -0.000102   0.000145   0.001341
    25  H    0.425472  -0.029551   0.003638  -0.000041  -0.000159   0.000202
    26  N   -0.029551   7.322192   0.174180  -0.030733  -0.035939  -0.038147
    27  C    0.003638   0.174180   5.167185   0.403127   0.401359   0.396534
    28  H   -0.000041  -0.030733   0.403127   0.411476  -0.019083  -0.019330
    29  H   -0.000159  -0.035939   0.401359  -0.019083   0.456821  -0.022887
    30  H    0.000202  -0.038147   0.396534  -0.019330  -0.022887   0.465277
    31  C   -0.002359   0.155985  -0.056960  -0.000505  -0.004915   0.004090
    32  H   -0.000040  -0.027629   0.000043   0.000164   0.000057  -0.000110
    33  H    0.001311  -0.035305   0.003948  -0.000103   0.000217  -0.000132
    34  H    0.000069  -0.036365  -0.008553   0.000297   0.000888   0.000401
    35  C   -0.000642   0.141020  -0.054719  -0.005808   0.004035  -0.000332
    36  H   -0.000254  -0.040498  -0.004969  -0.000215   0.000012   0.001496
    37  H    0.001238  -0.027859   0.002415   0.000075  -0.000069  -0.000054
    38  C   -0.000007  -0.038125  -0.012518  -0.002878  -0.000218   0.000499
    39  H    0.000001   0.001247  -0.000703  -0.000085   0.000016  -0.000010
    40  H    0.000004  -0.003994  -0.007785  -0.002742  -0.000322   0.000494
    41  C   -0.000006   0.000880   0.000396   0.000348  -0.000002  -0.000005
    42  O    0.000000  -0.000021  -0.000006   0.000003   0.000000   0.000000
    43  O   -0.000050  -0.002461  -0.000052   0.000010   0.000001   0.000001
             31         32         33         34         35         36
     1  C    0.000000   0.000000   0.000000   0.000000   0.000000   0.000000
     2  H    0.000000   0.000000   0.000000   0.000000   0.000000   0.000000
     3  H    0.000000   0.000000   0.000000   0.000000   0.000000   0.000000
     4  C    0.000000   0.000000   0.000000   0.000000   0.000000   0.000000
     5  H    0.000000   0.000000   0.000000   0.000000  -0.000001   0.000000
     6  H    0.000000   0.000000   0.000000   0.000000   0.000000   0.000000
     7  H    0.000000   0.000000   0.000000   0.000000   0.000000   0.000000
     8  C    0.000000   0.000000   0.000000   0.000000   0.000000   0.000000
     9  C    0.000000   0.000000   0.000000   0.000000   0.000000   0.000000
    10  H    0.000000   0.000000   0.000000   0.000000   0.000000   0.000000
    11  H    0.000000   0.000000   0.000000   0.000000   0.000000   0.000000
    12  H    0.000000   0.000000   0.000000   0.000000   0.000000   0.000000
    13  C    0.000000   0.000000   0.000000   0.000000   0.000000   0.000000
    14  H    0.000000   0.000000   0.000000   0.000000   0.000000   0.000000
    15  H    0.000000   0.000000   0.000000   0.000000   0.000000   0.000000
    16  H    0.000000   0.000000   0.000000   0.000000   0.000000   0.000000
    17  C   -0.000018   0.000000  -0.000005   0.000017   0.000002   0.000000
    18  O   -0.000017   0.000000  -0.000001   0.000010   0.000000   0.000000
    19  O   -0.000113  -0.000001   0.000003   0.000014  -0.000020  -0.000001
    20  C   -0.006857   0.000300  -0.003274   0.000007   0.003382  -0.000014
    21  H    0.001940   0.000264  -0.000060  -0.003576  -0.000209  -0.000001
    22  H   -0.000639  -0.000040   0.000083   0.000167  -0.000178   0.000006
    23  C   -0.041909   0.001750  -0.000126  -0.004837  -0.058967  -0.004051
    24  H    0.003588  -0.000038   0.000215  -0.000192  -0.002335   0.002056
    25  H   -0.002359  -0.000040   0.001311   0.000069  -0.000642  -0.000254
    26  N    0.155985  -0.027629  -0.035305  -0.036365   0.141020  -0.040498
    27  C   -0.056960   0.000043   0.003948  -0.008553  -0.054719  -0.004969
    28  H   -0.000505   0.000164  -0.000103   0.000297  -0.005808  -0.000215
    29  H   -0.004915   0.000057   0.000217   0.000888   0.004035   0.000012
    30  H    0.004090  -0.000110  -0.000132   0.000401  -0.000332   0.001496
    31  C    5.227174   0.368247   0.402232   0.376843  -0.055660   0.004684
    32  H    0.368247   0.380738  -0.011325  -0.016696  -0.002835  -0.000025
    33  H    0.402232  -0.011325   0.424501  -0.026191  -0.001831  -0.000056
    34  H    0.376843  -0.016696  -0.026191   0.515806   0.005562  -0.000081
    35  C   -0.055660  -0.002835  -0.001831   0.005562   5.319232   0.399007
    36  H    0.004684  -0.000025  -0.000056  -0.000081   0.399007   0.495537
    37  H    0.000587  -0.002078   0.001261   0.000038   0.372245  -0.015293
    38  C   -0.014748  -0.000514   0.000279  -0.000620   0.235929  -0.040315
    39  H    0.000689   0.000690  -0.000016  -0.000005  -0.036000  -0.004260
    40  H   -0.002693  -0.003667   0.000252  -0.000587  -0.060471   0.002624
    41  C   -0.002594  -0.000282  -0.000014   0.000245  -0.038023   0.002786
    42  O    0.000076  -0.000314   0.000003   0.000001   0.001552  -0.000015
    43  O   -0.001819   0.017501   0.000827   0.000421  -0.001476   0.000621
             37         38         39         40         41         42
     1  C    0.000000   0.000000   0.000000   0.000000   0.000000   0.000000
     2  H    0.000000   0.000000   0.000000   0.000000   0.000000   0.000000
     3  H    0.000000   0.000000   0.000000   0.000000   0.000000   0.000000
     4  C    0.000000   0.000000   0.000000   0.000000   0.000000   0.000000
     5  H    0.000000   0.000000   0.000000   0.000000   0.000000   0.000000
     6  H    0.000000   0.000000   0.000000   0.000000   0.000000   0.000000
     7  H    0.000000   0.000000   0.000000   0.000000   0.000000   0.000000
     8  C    0.000000   0.000000   0.000000   0.000000   0.000000   0.000000
     9  C    0.000000   0.000000   0.000000   0.000000   0.000000   0.000000
    10  H    0.000000   0.000000   0.000000   0.000000   0.000000   0.000000
    11  H    0.000000   0.000000   0.000000   0.000000   0.000000   0.000000
    12  H    0.000000   0.000000   0.000000   0.000000   0.000000   0.000000
    13  C    0.000000   0.000000   0.000000   0.000000   0.000000   0.000000
    14  H    0.000000   0.000000   0.000000   0.000000   0.000000   0.000000
    15  H    0.000000   0.000000   0.000000   0.000000   0.000000   0.000000
    16  H    0.000000   0.000000   0.000000   0.000000   0.000000   0.000000
    17  C    0.000000   0.000000   0.000000   0.000000   0.000000   0.000000
    18  O    0.000000   0.000000   0.000000   0.000000   0.000000   0.000000
    19  O   -0.000001   0.000000   0.000000   0.000000   0.000000   0.000000
    20  C    0.000041  -0.000140   0.000002  -0.000016   0.000003   0.000000
    21  H    0.000004   0.000006   0.000000   0.000000  -0.000001   0.000000
    22  H    0.000000   0.000003   0.000000  -0.000001   0.000000   0.000000
    23  C   -0.002051   0.004431  -0.000073   0.000012  -0.000232   0.000000
    24  H   -0.000075  -0.000091  -0.000007   0.000007   0.000003   0.000000
    25  H    0.001238  -0.000007   0.000001   0.000004  -0.000006   0.000000
    26  N   -0.027859  -0.038125   0.001247  -0.003994   0.000880  -0.000021
    27  C    0.002415  -0.012518  -0.000703  -0.007785   0.000396  -0.000006
    28  H    0.000075  -0.002878  -0.000085  -0.002742   0.000348   0.000003
    29  H   -0.000069  -0.000218   0.000016  -0.000322  -0.000002   0.000000
    30  H   -0.000054   0.000499  -0.000010   0.000494  -0.000005   0.000000
    31  C    0.000587  -0.014748   0.000689  -0.002693  -0.002594   0.000076
    32  H   -0.002078  -0.000514   0.000690  -0.003667  -0.000282  -0.000314
    33  H    0.001261   0.000279  -0.000016   0.000252  -0.000014   0.000003
    34  H    0.000038  -0.000620  -0.000005  -0.000587   0.000245   0.000001
    35  C    0.372245   0.235929  -0.036000  -0.060471  -0.038023   0.001552
    36  H   -0.015293  -0.040315  -0.004260   0.002624   0.002786  -0.000015
    37  H    0.384382  -0.037251   0.001171   0.002642   0.000304   0.000314
    38  C   -0.037251   5.609132   0.376595   0.400043   0.212749  -0.085879
    39  H    0.001171   0.376595   0.461164  -0.018443  -0.010952   0.005777
    40  H    0.002642   0.400043  -0.018443   0.540051  -0.023394  -0.000512
    41  C    0.000304   0.212749  -0.010952  -0.023394   4.171614   0.522007
    42  O    0.000314  -0.085879   0.005777  -0.000512   0.522007   8.301532
    43  O    0.030203  -0.103850   0.001823   0.000242   0.412994  -0.081928
             43
     1  C    0.000000
     2  H    0.000000
     3  H    0.000000
     4  C    0.000000
     5  H    0.000000
     6  H    0.000000
     7  H    0.000000
     8  C    0.000000
     9  C    0.000000
    10  H    0.000000
    11  H    0.000000
    12  H    0.000000
    13  C    0.000000
    14  H    0.000000
    15  H    0.000000
    16  H    0.000000
    17  C    0.000000
    18  O    0.000000
    19  O    0.000000
    20  C    0.000001
    21  H   -0.000001
    22  H    0.000000
    23  C   -0.000030
    24  H    0.000000
    25  H   -0.000050
    26  N   -0.002461
    27  C   -0.000052
    28  H    0.000010
    29  H    0.000001
    30  H    0.000001
    31  C   -0.001819
    32  H    0.017501
    33  H    0.000827
    34  H    0.000421
    35  C   -0.001476
    36  H    0.000621
    37  H    0.030203
    38  C   -0.103850
    39  H    0.001823
    40  H    0.000242
    41  C    0.412994
    42  O   -0.081928
    43  O    8.561062
 Mulliken atomic charges:
              1
     1  C   -0.306421
     2  H    0.164755
     3  H    0.178909
     4  C   -0.534763
     5  H    0.231808
     6  H    0.163921
     7  H    0.163549
     8  C   -0.152403
     9  C   -0.454792
    10  H    0.200275
    11  H    0.176085
    12  H    0.167912
    13  C   -0.484280
    14  H    0.180788
    15  H    0.187477
    16  H    0.193878
    17  C    0.855733
    18  O   -0.593434
    19  O   -0.695921
    20  C    0.006519
    21  H    0.216528
    22  H    0.198889
    23  C   -0.172804
    24  H    0.231041
    25  H    0.253793
    26  N   -0.584570
    27  C   -0.357343
    28  H    0.263173
    29  H    0.225250
    30  H    0.216461
    31  C   -0.354328
    32  H    0.295843
    33  H    0.243308
    34  H    0.196917
    35  C   -0.162459
    36  H    0.201220
    37  H    0.287810
    38  C   -0.502509
    39  H    0.221379
    40  H    0.178258
    41  C    0.751175
    42  O   -0.662591
    43  O   -0.834038
 Sum of Mulliken atomic charges =   0.00000
 Mulliken charges with hydrogens summed into heavy atoms:
              1
     1  C    0.037243
     4  C    0.024517
     8  C   -0.152403
     9  C    0.089481
    13  C    0.077863
    17  C    0.855733
    18  O   -0.593434
    19  O   -0.695921
    20  C    0.421935
    23  C    0.312031
    26  N   -0.584570
    27  C    0.347541
    31  C    0.381739
    35  C    0.326571
    38  C   -0.102873
    41  C    0.751175
    42  O   -0.662591
    43  O   -0.834038
 Sum of Mulliken charges with hydrogens summed into heavy atoms =   0.00000
 DipInt: DoE/N= T F RetVal/Mat= T F Init=T NMatP=  1 IDeriv=0 Min/MaxMlt=  0  4
 Entering OneElI...
 OneElI was handed    33290054 working-precision words.
 Multipole integrals L=0 to 4 MinM= 0 MaxM= 0.
 Requested accuracy = 0.1000D-12
 PrsmSu:  NPrtUS=   1 ThrOK=F IAlg=1
 PRISM was handed    32829273 working-precision words and  5679 shell-pairs
 IPart=  0 NShTot=        5679 NBatch=          42 AvBLen=       135.2
 Electronic moments (au):
       -142.00000000       1168.26860786         89.98501974       -882.07360074
     -12730.96239697      -1027.41506849      -9811.31168150      -1755.05366318
      10298.76336893       1923.30526038     159348.42711309       1046.45162896
    -114192.27060547      10389.03052173      27472.80844143    -132188.87297087
     120443.53951943      22896.93811709      -7251.62217124     -25747.71350645
   -2174124.17213540     -17884.54692070   -1426653.05132463    -421791.08908862
    1812060.10193797     -25289.20910647      27872.76068678    1476558.93493005
     289055.36701007    -130566.36902912   -1605543.89298141     -86259.10560164
     368187.95878135      98903.55093082    -319462.13068429
 Electronic spatial extent (au):  <R**2>=          23569.6891
 DipInt: DoE/N= F T RetVal/Mat= T F Init=T NMatP=  1 IDeriv=0 Min/MaxMlt=  0  4
 Nuclear    moments (au):
        142.00000000      -1162.57652449        -86.93118157        879.23854703
      12499.04570027        932.71238865       9677.38364461       1705.39929024
     -10203.36239851      -1887.98110851    -154332.95116140       -857.63754962
     111739.88097379      -9497.81831362     -26535.21258673     129577.75712063
    -118316.24983714     -22377.01148293       6599.08234666      25097.86116823
    2075843.32804635      14169.39430968    1376925.54772457     403306.43934863
   -1754262.67228606      21484.58576964     -23991.27640996   -1436714.34613012
    -279209.86056498     118842.96095881    1562763.60533192      78103.95573594
    -355525.47498844     -90299.90614992     309804.49627726
 Total      moments (au):
          0.00000000          5.69208338          3.05383817         -2.83505372
       -231.91669670        -94.70267984       -133.92803688        -49.65437294
         95.40097043         35.32415187       5015.47595168        188.81407934
      -2452.38963168        891.21220811        937.59585470      -2611.11585023
       2127.28968229        519.92663416       -652.53982458       -649.85233822
     -98280.84408905      -3715.15261102     -49727.50360005     -18484.64973999
      57797.42965192      -3804.62333682       3881.48427682      39844.58879993
       9845.50644509     -11723.40807032     -42780.28764949      -8155.14986570
      12662.48379291       8603.64478091      -9657.63440703
 Traceless Quadrup. (au):
        -78.40089223         58.81312464         19.58776759        -49.65437294
         95.40097043         35.32415187
 Charge=              0.0000 electrons
 Dipole moment (field-independent basis, Debye):
    X=             14.4678    Y=              7.7621    Z=             -7.2060  Tot=             17.9303
 Quadrupole moment (field-independent basis, Debye-Ang):
   XX=           -311.9359   YY=           -127.3783   ZZ=           -180.1378
   XY=            -66.7868   XZ=            128.3176   YZ=             47.5122
 Traceless Quadrupole moment (field-independent basis, Debye-Ang):
[...]
 8875 Fit       0.004883
 8876 Fit      -0.002598
 8877 Fit      -0.011747
 8878 Fit      -0.023416
 8879 Fit       0.019295
 8880 Fit       0.013645
 8881 Fit       0.007523
 8882 Fit       0.000506
 8883 Fit      -0.007921
 8884 Fit      -0.018466
 8885 Fit       0.025373
 8886 Fit       0.019592
 8887 Fit       0.013697
 8888 Fit       0.007254
 8889 Fit      -0.000194
 8890 Fit      -0.009203
 8891 Fit      -0.020542
 8892 Fit       0.024962
 8893 Fit       0.018887
 8894 Fit       0.012529
 8895 Fit       0.005424
 8896 Fit      -0.002933
 8897 Fit      -0.013179
 8898 Fit       0.024725
 8899 Fit       0.018368
 8900 Fit       0.011559
 8901 Fit       0.003851
 8902 Fit      -0.005250
 8903 Fit      -0.016335
 8904 Fit       0.014719
 8905 Fit       0.006541
 8906 Fit      -0.002907
 8907 Fit      -0.014040
 8908 Fit       0.001195
 8909 Fit      -0.008885
 8910 Fit      -0.005949
 8911 Fit      -0.015081
 8912 Fit      -0.009709
 8913 Fit      -0.001556
 8914 Fit      -0.021512
 8915 Fit      -0.023036
 8916 Fit      -0.020204
 8917 Fit      -0.014323
 8918 Fit      -0.003770
 8919 Fit       0.002764
 8920 Fit      -0.028147
 8921 Fit      -0.031117
 8922 Fit      -0.030583
 8923 Fit      -0.026302
 8924 Fit       0.001404
 8925 Fit       0.007196
 8926 Fit       0.007254
 8927 Fit      -0.032840
 8928 Fit      -0.038432
 8929 Fit      -0.036149
 8930 Fit       0.011916
 8931 Fit       0.011754
 8932 Fit       0.017088
 8933 Fit       0.016688
 8934 Fit       0.015887
 8935 Fit       0.022878
 8936 Fit       0.022268
 8937 Fit       0.021295
 8938 Fit       0.019904
 8939 Fit       0.023170
 8940 Fit       0.030019
 8941 Fit      -0.018567
 8942 Fit      -0.007561
 8943 Fit      -0.003716
 8944 Fit      -0.004267
 8945 Fit      -0.007974
 8946 Fit      -0.011695
 8947 Fit      -0.011441
 8948 Fit      -0.007108
 8949 Fit      -0.000023
 8950 Fit       0.000213
 8951 Fit      -0.001402
 8952 Fit      -0.004469
 8953 Fit      -0.008460
 8954 Fit      -0.012700
 8955 Fit      -0.016248
 8956 Fit      -0.017785
 8957 Fit      -0.016141
 8958 Fit      -0.006468
 8959 Fit      -0.002302
 8960 Fit       0.003669
 8961 Fit       0.003987
 8962 Fit       0.003092
 8963 Fit       0.001150
 8964 Fit      -0.001656
 8965 Fit      -0.005141
 8966 Fit      -0.009111
 8967 Fit      -0.013341
 8968 Fit      -0.017554
 8969 Fit      -0.021339
 8970 Fit      -0.023986
 8971 Fit       0.002022
 8972 Fit       0.007533
 8973 Fit       0.007749
 8974 Fit       0.006992
 8975 Fit       0.005383
 8976 Fit       0.003051
 8977 Fit       0.000108
 8978 Fit      -0.003350
 8979 Fit      -0.007232
 8980 Fit      -0.011439
 8981 Fit      -0.015861
 8982 Fit      -0.020392
 8983 Fit      -0.024901
 8984 Fit      -0.029110
 8985 Fit       0.011802
 8986 Fit       0.010941
 8987 Fit       0.009308
 8988 Fit       0.007032
 8989 Fit       0.004216
 8990 Fit       0.000932
 8991 Fit      -0.002771
 8992 Fit      -0.006844
 8993 Fit      -0.011229
 8994 Fit      -0.015858
 8995 Fit      -0.020670
 8996 Fit      -0.025649
 8997 Fit      -0.030836
 8998 Fit      -0.036218
 8999 Fit       0.016439
 9000 Fit       0.015369
 9001 Fit       0.013572
 9002 Fit       0.011194
 9003 Fit       0.008353
 9004 Fit       0.005118
 9005 Fit       0.001519
 9006 Fit      -0.002428
 9007 Fit      -0.006706
 9008 Fit      -0.011282
 9009 Fit      -0.016106
 9010 Fit      -0.021115
 9011 Fit      -0.026274
 9012 Fit      -0.031643
 9013 Fit       0.018069
 9014 Fit       0.015144
 9015 Fit       0.011819
 9016 Fit       0.008167
 9017 Fit       0.004200
 9018 Fit      -0.000096
 9019 Fit      -0.004738
 9020 Fit      -0.009725
 9021 Fit      -0.015025
 9022 Fit      -0.020571
 9023 Fit      -0.026266
 9024 Fit      -0.032039
 9025 Fit       0.015835
 9026 Fit       0.011638
 9027 Fit       0.007221
 9028 Fit       0.002523
 9029 Fit      -0.002517
 9030 Fit      -0.007943
 9031 Fit      -0.013762
 9032 Fit      -0.019937
 9033 Fit      -0.026366
 9034 Fit      -0.032879
 9035 Fit       0.009747
 9036 Fit       0.004376
 9037 Fit      -0.001358
 9038 Fit      -0.007551
 9039 Fit      -0.014263
 9040 Fit      -0.021498
 9041 Fit      -0.029179
 9042 Fit       0.003750
 9043 Fit      -0.003392
 9044 Fit      -0.011242
 9045 Fit      -0.019925
 9046 Fit      -0.029496
 9047 Fit      -0.019737
 9048 Fit      -0.008872
 9049 Fit      -0.003314
 9050 Fit      -0.015122
 9051 Fit      -0.012662
 9052 Fit      -0.006451
 9053 Fit       0.001890
 9054 Fit       0.000922
 9055 Fit      -0.021950
 9056 Fit      -0.016879
 9057 Fit      -0.009913
 9058 Fit      -0.003652
 9059 Fit       0.000436
 9060 Fit       0.007018
 9061 Fit       0.006253
 9062 Fit      -0.028516
 9063 Fit      -0.021655
 9064 Fit      -0.013821
 9065 Fit      -0.006491
 9066 Fit      -0.000478
 9067 Fit       0.003824
 9068 Fit       0.006290
 9069 Fit       0.012323
 9070 Fit       0.011522
 9071 Fit      -0.030217
 9072 Fit      -0.020802
 9073 Fit      -0.011906
 9074 Fit      -0.004145
 9075 Fit       0.002219
 9076 Fit       0.007050
 9077 Fit       0.010289
 9078 Fit       0.011988
 9079 Fit       0.018056
 9080 Fit       0.017141
 9081 Fit      -0.033184
 9082 Fit      -0.021716
 9083 Fit      -0.011585
 9084 Fit      -0.002931
 9085 Fit       0.004264
 9086 Fit       0.009987
 9087 Fit       0.014176
 9088 Fit       0.016814
 9089 Fit       0.018027
 9090 Fit       0.024477
 9091 Fit      -0.021846
 9092 Fit      -0.010717
 9093 Fit      -0.001294
 9094 Fit       0.006674
 9095 Fit       0.013286
 9096 Fit       0.024778
 9097 Fit      -0.029333
 9098 Fit      -0.015333
 9099 Fit      -0.003739
 9100 Fit       0.006110
 9101 Fit      -0.020795
 9102 Fit      -0.006850
 9103 Fit       0.004869
 9104 Fit      -0.014224
 9105 Fit       0.000218
 9106 Fit      -0.036340
 9107 Fit      -0.044177
 9108 Fit      -0.039097
 9109 Fit      -0.046383
 9110 Fit      -0.033561
 9111 Fit      -0.040090
 9112 Fit      -0.046401
 9113 Fit      -0.052809
 9114 Fit      -0.034036
 9115 Fit      -0.040306
 9116 Fit      -0.046128
 9117 Fit      -0.051826
 9118 Fit      -0.057726
 9119 Fit      -0.035920
 9120 Fit      -0.041940
 9121 Fit      -0.047315
 9122 Fit      -0.052328
 9123 Fit      -0.057294
 9124 Fit      -0.062534
 9125 Fit      -0.041056
 9126 Fit      -0.046749
 9127 Fit      -0.051663
 9128 Fit      -0.056063
 9129 Fit      -0.060261
 9130 Fit      -0.064593
 9131 Fit      -0.069387
 9132 Fit      -0.064324
 9133 Fit      -0.067660
 9134 Fit      -0.071297
 9135 Fit      -0.075512
 9136 Fit      -0.078732
 9137 Fit      -0.081682
 9138 Fit      -0.050496
 9139 Fit      -0.046421
 9140 Fit      -0.047097
 9141 Fit      -0.051130
 9142 Fit      -0.054008
 9143 Fit      -0.053238
 9144 Fit      -0.049664
 9145 Fit      -0.041653
 9146 Fit      -0.042951
 9147 Fit      -0.047044
 9148 Fit      -0.051671
 9149 Fit      -0.055257
 9150 Fit      -0.057067
 9151 Fit      -0.057041
 9152 Fit      -0.055402
 9153 Fit      -0.052437
 9154 Fit      -0.048552
 9155 Fit      -0.044541
 9156 Fit      -0.042272
 9157 Fit      -0.047425
 9158 Fit      -0.052258
 9159 Fit      -0.056057
 9160 Fit      -0.058558
 9161 Fit      -0.059772
 9162 Fit      -0.059831
 9163 Fit      -0.058887
 9164 Fit      -0.057067
 9165 Fit      -0.054449
 9166 Fit      -0.051088
 9167 Fit      -0.047102
 9168 Fit      -0.042808
 9169 Fit      -0.038839
 9170 Fit      -0.053064
 9171 Fit      -0.056940
 9172 Fit      -0.059701
 9173 Fit      -0.061416
 9174 Fit      -0.062205
 9175 Fit      -0.062191
 9176 Fit      -0.061485
 9177 Fit      -0.060171
 9178 Fit      -0.058304
 9179 Fit      -0.055897
 9180 Fit      -0.052933
 9181 Fit      -0.049388
 9182 Fit      -0.045278
 9183 Fit      -0.040734
 9184 Fit      -0.055760
 9185 Fit      -0.059330
 9186 Fit      -0.061852
 9187 Fit      -0.063458
 9188 Fit      -0.064278
 9189 Fit      -0.064425
 9190 Fit      -0.063992
 9191 Fit      -0.063054
 9192 Fit      -0.061669
 9193 Fit      -0.059868
 9194 Fit      -0.057654
 9195 Fit      -0.054998
 9196 Fit      -0.051849
 9197 Fit      -0.048143
 9198 Fit      -0.043838
 9199 Fit      -0.038950
 9200 Fit      -0.060224
 9201 Fit      -0.063021
 9202 Fit      -0.064895
 9203 Fit      -0.066005
 9204 Fit      -0.066470
 9205 Fit      -0.066384
 9206 Fit      -0.065821
 9207 Fit      -0.064838
 9208 Fit      -0.063482
 9209 Fit      -0.061779
 9210 Fit      -0.059738
 9211 Fit      -0.057340
 9212 Fit      -0.054539
 9213 Fit      -0.051263
 9214 Fit      -0.047428
 9215 Fit      -0.042948
 9216 Fit      -0.037759
 9217 Fit      -0.064770
 9218 Fit      -0.066662
 9219 Fit      -0.067839
 9220 Fit      -0.068432
 9221 Fit      -0.068532
 9222 Fit      -0.068201
 9223 Fit      -0.067488
 9224 Fit      -0.066433
 9225 Fit      -0.065068
 9226 Fit      -0.063414
 9227 Fit      -0.061479
 9228 Fit      -0.059253
 9229 Fit      -0.056704
 9230 Fit      -0.053775
 9231 Fit      -0.050387
 9232 Fit      -0.046444
 9233 Fit      -0.041838
 9234 Fit      -0.036466
 9235 Fit      -0.030237
 9236 Fit      -0.069728
 9237 Fit      -0.070468
 9238 Fit      -0.070755
 9239 Fit      -0.070657
 9240 Fit      -0.070217
 9241 Fit      -0.069462
 9242 Fit      -0.068413
 9243 Fit      -0.067090
 9244 Fit      -0.065511
 9245 Fit      -0.063683
 9246 Fit      -0.061606
 9247 Fit      -0.059262
 9248 Fit      -0.056614
 9249 Fit      -0.053602
 9250 Fit      -0.050146
 9251 Fit      -0.046141
 9252 Fit      -0.041469
 9253 Fit      -0.035999
 9254 Fit      -0.029599
 9255 Fit      -0.073724
 9256 Fit      -0.073493
 9257 Fit      -0.073026
 9258 Fit      -0.072327
 9259 Fit      -0.071392
 9260 Fit      -0.070216
 9261 Fit      -0.068799
 9262 Fit      -0.067144
 9263 Fit      -0.065254
 9264 Fit      -0.063124
 9265 Fit      -0.060741
 9266 Fit      -0.058071
 9267 Fit      -0.055061
 9268 Fit      -0.051632
 9269 Fit      -0.047678
 9270 Fit      -0.043070
 9271 Fit      -0.037655
 9272 Fit      -0.031267
 9273 Fit      -0.023729
 9274 Fit      -0.078231
 9275 Fit      -0.077008
 9276 Fit      -0.075848
 9277 Fit      -0.074675
 9278 Fit      -0.073420
 9279 Fit      -0.072030
 9280 Fit      -0.070468
 9281 Fit      -0.068712
 9282 Fit      -0.066749
 9283 Fit      -0.064565
 9284 Fit      -0.062144
 9285 Fit      -0.059454
 9286 Fit      -0.056447
 9287 Fit      -0.053053
 9288 Fit      -0.049170
 9289 Fit      -0.044669
 9290 Fit      -0.039390
 9291 Fit      -0.033149
 9292 Fit      -0.025743
 9293 Fit      -0.016967
 9294 Fit      -0.080704
 9295 Fit      -0.078497
 9296 Fit      -0.076581
 9297 Fit      -0.074782
 9298 Fit      -0.072978
 9299 Fit      -0.071085
 9300 Fit      -0.069048
 9301 Fit      -0.066829
 9302 Fit      -0.064398
 9303 Fit      -0.061724
 9304 Fit      -0.058762
 9305 Fit      -0.055451
 9306 Fit      -0.051702
 9307 Fit      -0.047395
 9308 Fit      -0.042372
 9309 Fit      -0.036435
 9310 Fit      -0.029350
 9311 Fit      -0.083015
 9312 Fit      -0.079806
 9313 Fit      -0.077152
 9314 Fit      -0.074769
 9315 Fit      -0.072469
 9316 Fit      -0.070127
 9317 Fit      -0.067659
 9318 Fit      -0.065006
 9319 Fit      -0.062112
 9320 Fit      -0.058921
 9321 Fit      -0.055358
 9322 Fit      -0.051318
 9323 Fit      -0.046661
 9324 Fit      -0.041198
 9325 Fit      -0.034682
 9326 Fit      -0.026797
 9327 Fit      -0.084187
 9328 Fit      -0.080131
 9329 Fit      -0.076836
 9330 Fit      -0.073928
 9331 Fit      -0.071165
 9332 Fit      -0.068387
 9333 Fit      -0.065482
 9334 Fit      -0.062364
 9335 Fit      -0.058952
 9336 Fit      -0.055153
 9337 Fit      -0.050847
 9338 Fit      -0.045875
 9339 Fit      -0.040015
 9340 Fit      -0.032968
 9341 Fit      -0.084477
 9342 Fit      -0.079476
 9343 Fit      -0.075462
 9344 Fit      -0.071935
 9345 Fit      -0.068577
 9346 Fit      -0.065177
 9347 Fit      -0.061582
 9348 Fit      -0.057660
 9349 Fit      -0.053268
 9350 Fit      -0.048235
 9351 Fit      -0.042324
 9352 Fit      -0.035205
 9353 Fit      -0.080192
 9354 Fit      -0.074951
 9355 Fit      -0.070509
 9356 Fit      -0.066361
 9357 Fit      -0.062175
 9358 Fit      -0.057706
 9359 Fit      -0.052730
 9360 Fit      -0.046999
 9361 Fit      -0.040184
 9362 Fit      -0.073631
 9363 Fit      -0.068167
 9364 Fit      -0.063101
 9365 Fit      -0.057944
 9366 Fit      -0.052320
 9367 Fit      -0.045864
 9368 Fit      -0.038134
 9369 Fit      -0.067536
 9370 Fit      -0.061077
 9371 Fit      -0.054614
 9372 Fit      -0.047493
 9373 Fit      -0.039086
 9374 Fit      -0.062033
 9375 Fit      -0.053593
 9376 Fit      -0.044502
 9377 Fit      -0.040778
 9378 Fit      -0.046542
 9379 Fit      -0.051706
 9380 Fit      -0.035682
 9381 Fit      -0.041856
 9382 Fit      -0.047179
 9383 Fit      -0.051902
 9384 Fit      -0.056263
 9385 Fit      -0.060501
 9386 Fit      -0.064901
 9387 Fit      -0.030178
 9388 Fit      -0.036929
 9389 Fit      -0.042655
 9390 Fit      -0.047594
 9391 Fit      -0.051955
 9392 Fit      -0.055925
 9393 Fit      -0.059675
 9394 Fit      -0.063380
 9395 Fit      -0.067248
 9396 Fit      -0.071555
 9397 Fit      -0.025563
 9398 Fit      -0.032970
 9399 Fit      -0.039166
 9400 Fit      -0.044423
 9401 Fit      -0.048967
 9402 Fit      -0.052987
 9403 Fit      -0.056640
 9404 Fit      -0.060064
 9405 Fit      -0.063387
 9406 Fit      -0.066748
 9407 Fit      -0.070317
 9408 Fit      -0.074329
 9409 Fit      -0.079133
 9410 Fit      -0.031462
 9411 Fit      -0.038005
 9412 Fit      -0.043472
 9413 Fit      -0.048136
 9414 Fit      -0.052208
 9415 Fit      -0.055855
 9416 Fit      -0.059211
 9417 Fit      -0.062390
 9418 Fit      -0.065500
 9419 Fit      -0.068657
 9420 Fit      -0.072007
 9421 Fit      -0.075753
 9422 Fit      -0.080186
 9423 Fit      -0.029484
 9424 Fit      -0.036374
 9425 Fit      -0.042056
 9426 Fit      -0.046847
 9427 Fit      -0.050983
 9428 Fit      -0.054641
 9429 Fit      -0.057958
 9430 Fit      -0.061039
 9431 Fit      -0.063973
 9432 Fit      -0.066843
 9433 Fit      -0.069738
 9434 Fit      -0.072772
 9435 Fit      -0.076096
 9436 Fit      -0.079921
 9437 Fit      -0.084528
 9438 Fit      -0.028824
 9439 Fit      -0.035840
 9440 Fit      -0.041579
 9441 Fit      -0.046387
 9442 Fit      -0.050515
 9443 Fit      -0.054143
 9444 Fit      -0.057407
 9445 Fit      -0.060406
 9446 Fit      -0.063217
 9447 Fit      -0.065904
 9448 Fit      -0.068530
 9449 Fit      -0.071164
 9450 Fit      -0.073894
 9451 Fit      -0.076829
 9452 Fit      -0.080102
 9453 Fit      -0.083842
 9454 Fit      -0.029657
 9455 Fit      -0.036497
 9456 Fit      -0.042091
 9457 Fit      -0.046776
 9458 Fit      -0.050797
 9459 Fit      -0.054325
 9460 Fit      -0.057485
 9461 Fit      -0.060365
 9462 Fit      -0.063028
 9463 Fit      -0.065520
 9464 Fit      -0.067882
 9465 Fit      -0.070151
 9466 Fit      -0.072368
 9467 Fit      -0.074570
 9468 Fit      -0.076773
 9469 Fit      -0.078930
 9470 Fit      -0.030286
 9471 Fit      -0.036834
 9472 Fit      -0.042216
 9473 Fit      -0.046738
 9474 Fit      -0.050618
 9475 Fit      -0.054012
 9476 Fit      -0.057029
 9477 Fit      -0.059741
 9478 Fit      -0.062192
 9479 Fit      -0.064410
 9480 Fit      -0.066408
 9481 Fit      -0.068187
 9482 Fit      -0.069734
 9483 Fit      -0.071009
 9484 Fit      -0.071917
 9485 Fit      -0.072262
 9486 Fit      -0.071690
 9487 Fit      -0.026535
 9488 Fit      -0.033792
 9489 Fit      -0.039688
 9490 Fit      -0.044573
 9491 Fit      -0.048699
 9492 Fit      -0.052243
 9493 Fit      -0.055322
 9494 Fit      -0.058010
 9495 Fit      -0.060344
 9496 Fit      -0.062331
 9497 Fit      -0.063958
 9498 Fit      -0.065183
 9499 Fit      -0.065929
 9500 Fit      -0.066066
 9501 Fit      -0.065370
 9502 Fit      -0.063491
 9503 Fit      -0.059909
 9504 Fit      -0.053935
 9505 Fit      -0.024169
 9506 Fit      -0.031950
 9507 Fit      -0.038214
 9508 Fit      -0.043336
 9509 Fit      -0.047588
 9510 Fit      -0.051155
 9511 Fit      -0.054150
 9512 Fit      -0.056629
 9513 Fit      -0.058601
 9514 Fit      -0.060030
 9515 Fit      -0.060838
 9516 Fit      -0.060892
 9517 Fit      -0.059980
 9518 Fit      -0.057785
 9519 Fit      -0.053845
 9520 Fit      -0.047548
 9521 Fit      -0.011209
 9522 Fit      -0.021603
 9523 Fit      -0.029849
 9524 Fit      -0.036431
 9525 Fit      -0.041731
 9526 Fit      -0.046024
 9527 Fit      -0.049491
 9528 Fit      -0.052222
 9529 Fit      -0.054237
 9530 Fit      -0.055485
 9531 Fit      -0.055850
 9532 Fit      -0.055136
 9533 Fit      -0.053048
 9534 Fit      -0.049166
 9535 Fit      -0.042920
 9536 Fit      -0.010193
 9537 Fit      -0.020899
 9538 Fit      -0.029355
 9539 Fit      -0.035990
 9540 Fit      -0.041163
 9541 Fit      -0.045121
 9542 Fit      -0.047985
 9543 Fit      -0.049755
 9544 Fit      -0.050320
 9545 Fit      -0.049449
 9546 Fit      -0.046776
 9547 Fit      -0.041784
 9548 Fit      -0.011502
 9549 Fit      -0.022323
 9550 Fit      -0.030688
 9551 Fit      -0.036874
 9552 Fit      -0.041134
 9553 Fit      -0.043546
 9554 Fit      -0.043960
 9555 Fit      -0.041991
 9556 Fit      -0.037018
 9557 Fit      -0.023937
 9558 Fit      -0.031636
 9559 Fit      -0.035919
 9560 Fit      -0.036495
 9561 Fit      -0.032677
 9562 Fit      -0.025177
 9563 Fit      -0.027647
 -----------------------------------------------------------------
 Leave Link  602 at Thu Apr  6 12:18:22 2017, MaxMem=   33554432 cpu:       2.6

 Test job not archived.
 1\1\GINC-N0628\FOpt\RHF\6-31G(d)\C13H25N1O4\JSMITH07\06-Apr-2017\0\\#H
 F/6-31G* SCF=tight Test Pop=MK iop(6/33=2) NoSymm iop(6/42=6) opt\\rem
 ark line goes here\\0,1\C,-3.244873566,1.6374235922,-0.3223799053\H,-3
 .6885736679,2.1092354342,0.5472547992\H,-2.896801372,2.4417360385,-0.9
 642877256\C,-4.3207057828,0.8369462845,-1.0595650737\H,-4.7038813121,0
 .0195989505,-0.4551965293\H,-5.1602941416,1.480194774,-1.3003616088\H,
 -3.9536433421,0.4175365694,-1.9889327714\C,-1.996979333,0.8400832388,0
 .1269819051\C,-1.0675139365,1.7740632846,0.9269285072\H,-0.1947217152,
 1.2416726522,1.2927388338\H,-0.7193752759,2.5757457199,0.2846833436\H,
 -1.5777964256,2.2176316541,1.7731406279\C,-1.2316179553,0.2642807085,-
 1.070423782\H,-1.8185848933,-0.4602776091,-1.6184045184\H,-0.957137625
 4,1.0675307355,-1.7465584386\H,-0.3247487647,-0.2324033212,-0.74750085
 53\C,-2.4145729931,-0.3075193243,1.0373097705\O,-2.1610961268,-1.45605
 75969,0.8782694165\O,-3.1187789567,0.1108884592,2.0980645767\C,-3.5511
 52936,-0.8829245148,3.0019360356\H,-4.1912201072,-1.5837757774,2.48808
 14812\H,-2.6948355028,-1.4196026665,3.382034844\C,-4.2792413481,-0.093
 4629028,4.0839335052\H,-3.5836176136,0.5982446944,4.537685976\H,-5.077
 2875507,0.4781457124,3.6348395926\N,-4.893638249,-0.8947239456,5.19137
 05078\C,-3.8895319038,-1.788604228,5.8279000562\H,-4.3296328277,-2.239
 0966166,6.7014839789\H,-3.6000192959,-2.5661215558,5.1381047635\H,-3.0
 240033735,-1.2078638774,6.113052007\C,-6.0248556915,-1.7297216334,4.66
 17481266\H,-6.4518282171,-2.2998551064,5.4696441139\H,-6.7853339824,-1
 .0778747123,4.2674410183\H,-5.6344820751,-2.3971500029,3.9092997982\C,
 -5.3819704014,0.1309793335,6.2270571604\H,-4.4714401845,0.5538069856,6
 .6325133255\H,-5.9264908104,0.8775984809,5.6740556759\C,-6.3165805396,
 -0.4085761852,7.2926381713\H,-6.3939275879,0.3818288592,8.0348563436\H
 ,-5.9361454978,-1.2825653249,7.8081576313\C,-7.7525920015,-0.669664364
 6,6.7290056659\O,-8.317387877,-1.6497263918,7.1885984092\O,-8.09608723
 93,0.135395496,5.8568012397\\Version=EM64L-G09RevA.02\HF=-860.6980844\
 RMSD=5.239e-09\RMSF=3.223e-06\Dipole=5.039393,0.6605398,-1.8870363\Qua
 drupole=-71.7363585,52.6609645,19.075394,-9.4538576,79.8792939,3.64790
 28\PG=C01 [X(C13H25N1O4)]\\@


 WE DON'T KNOW ONE MILLIONTH OF ONE PERCENT ABOUT
 ANYTHING.
                                     T. A. EDISON.
 Job cpu time:  0 days  1 hours 17 minutes 49.5 seconds.
 File lengths (MBytes):  RWF=    188 Int=      0 D2E=      0 Chk=     10 Scr=      4
 Normal termination of Gaussian 09 at Thu Apr  6 12:18:22 2017.
