 Entering Gaussian System, Link 0=g09
 Input=PEG.com
 Output=PEG.log
 Initial command:
 /gscratch/pfaendtner/codes/G09/g09/l1.exe /scr/Gau-9317.inp -scrdir=/scr/
 Entering Link 1 = /gscratch/pfaendtner/codes/G09/g09/l1.exe PID=      9322.
  
 Copyright (c) 1988,1990,1992,1993,1995,1998,2003,2009, Gaussian, Inc.
                  All Rights Reserved.
  
 This is part of the Gaussian(R) 09 program.  It is based on
 the Gaussian(R) 03 system (copyright 2003, Gaussian, Inc.),
 the Gaussian(R) 98 system (copyright 1998, Gaussian, Inc.),
 the Gaussian(R) 94 system (copyright 1995, Gaussian, Inc.),
 the Gaussian 92(TM) system (copyright 1992, Gaussian, Inc.),
 the Gaussian 90(TM) system (copyright 1990, Gaussian, Inc.),
 the Gaussian 88(TM) system (copyright 1988, Gaussian, Inc.),
 the Gaussian 86(TM) system (copyright 1986, Carnegie Mellon
 University), and the Gaussian 82(TM) system (copyright 1983,
 Carnegie Mellon University). Gaussian is a federally registered
 trademark of Gaussian, Inc.
  
 This software contains proprietary and confidential information,
 including trade secrets, belonging to Gaussian, Inc.
  
 This software is provided under written license and may be
 used, copied, transmitted, or stored only in accord with that
 written license.
  
 The following legend is applicable only to US Government
 contracts under FAR:
  
                    RESTRICTED RIGHTS LEGEND
  
 Use, reproduction and disclosure by the US Government is
 subject to restrictions as set forth in subparagraphs (a)
 and (c) of the Commercial Computer Software - Restricted
 Rights clause in FAR 52.227-19.
  
 Gaussian, Inc.
 340 Quinnipiac St., Bldg. 40, Wallingford CT 06492
  
  
 ---------------------------------------------------------------
 Warning -- This program may not be used in any manner that
 competes with the business of Gaussian, Inc. or will provide
 assistance to any competitor of Gaussian, Inc.  The licensee
 of this program is prohibited from giving any competitor of
 Gaussian, Inc. access to this program.  By using this program,
 the user acknowledges that Gaussian, Inc. is engaged in the
 business of creating and licensing software in the field of
 computational chemistry and represents and warrants to the
 licensee that it is not a competitor of Gaussian, Inc. and that
 it will not use this program in any manner prohibited above.
 ---------------------------------------------------------------
  

 Cite this work as:
 Gaussian 09, Revision A.02,
 M. J. Frisch, G. W. Trucks, H. B. Schlegel, G. E. Scuseria, 
 M. A. Robb, J. R. Cheeseman, G. Scalmani, V. Barone, B. Mennucci, 
 G. A. Petersson, H. Nakatsuji, M. Caricato, X. Li, H. P. Hratchian, 
 A. F. Izmaylov, J. Bloino, G. Zheng, J. L. Sonnenberg, M. Hada, 
 M. Ehara, K. Toyota, R. Fukuda, J. Hasegawa, M. Ishida, T. Nakajima, 
 Y. Honda, O. Kitao, H. Nakai, T. Vreven, J. A. Montgomery, Jr., 
 J. E. Peralta, F. Ogliaro, M. Bearpark, J. J. Heyd, E. Brothers, 
 K. N. Kudin, V. N. Staroverov, R. Kobayashi, J. Normand, 
 K. Raghavachari, A. Rendell, J. C. Burant, S. S. Iyengar, J. Tomasi, 
 M. Cossi, N. Rega, J. M. Millam, M. Klene, J. E. Knox, J. B. Cross, 
 V. Bakken, C. Adamo, J. Jaramillo, R. Gomperts, R. E. Stratmann, 
 O. Yazyev, A. J. Austin, R. Cammi, C. Pomelli, J. W. Ochterski, 
 R. L. Martin, K. Morokuma, V. G. Zakrzewski, G. A. Voth, 
 P. Salvador, J. J. Dannenberg, S. Dapprich, A. D. Daniels, 
 O. Farkas, J. B. Foresman, J. V. Ortiz, J. Cioslowski, 
 and D. J. Fox, Gaussian, Inc., Wallingford CT, 2009.
 
 ******************************************
 Gaussian 09:  EM64L-G09RevA.02 11-Jun-2009
                14-Jan-2019 
 ******************************************
 %chk=molecule
 -------------------------------------------------------------------
 #HF/6-31G* SCF=tight Test Pop=MK iop(6/33=2) NoSymm iop(6/42=6) opt
 -------------------------------------------------------------------
 1/18=20,19=15,38=1/1,3;
 2/9=110,12=2,15=1,17=6,18=5,40=1/2;
 3/5=1,6=6,7=1,11=9,16=1,25=1,30=1,71=1/1,2,3;
 4//1;
 5/5=2,32=2,38=5/2;
 6/7=2,8=2,9=2,10=2,15=8,20=1,28=1,33=2,42=6/1,2;
 7/30=1/1,2,3,16;
 1/18=20,19=15/3(2);
 2/9=110,15=1/2;
 99//99;
 2/9=110,15=1/2;
 3/5=1,6=6,7=1,11=9,16=1,25=1,30=1,71=1/1,2,3;
 4/5=5,16=3/1;
 5/5=2,32=2,38=5/2;
 7/30=1/1,2,3,16;
 1/18=20,19=15/3(-5);
 2/9=110,15=1/2;
 6/7=2,8=2,9=2,10=2,15=8,19=2,20=1,28=1,33=2,42=6/1,2;
 99/9=1/99;
 ---------------------
 remark line goes here
 ---------------------
 Symbolic Z-matrix:
 Charge =  0 Multiplicity = 1
 H                    -6.102    -0.364     0.025 
 O                    -5.354     0.257     0.033 
 C                    -4.166    -0.523    -0.009 
 H                    -4.145    -1.195     0.855 
 H                    -4.171    -1.139    -0.914 
 C                    -2.965     0.403     0.003 
 H                    -2.989     1.032     0.901 
 H                    -2.998     1.068    -0.869 
 O                    -1.778    -0.376    -0.019 
 C                    -0.615     0.444    -0.008 
 H                    -0.607     1.096    -0.89 
 H                    -0.612     1.086     0.881 
 C                     0.616    -0.442    -0.008 
 H                     0.606    -1.095    -0.89 
 H                     0.611    -1.085     0.881 
 O                     1.776     0.377    -0.019 
 C                     2.965    -0.404     0.003 
 H                     2.985    -1.032     0.902 
 H                     2.998    -1.069    -0.868 
 C                     4.166     0.522    -0.009 
 H                     4.152     1.206     0.846 
 H                     4.177     1.134    -0.917 
 O                     5.354    -0.258     0.033 
 H                     6.102     0.765     0.025 
 

 GradGradGradGradGradGradGradGradGradGradGradGradGradGradGradGradGradGrad
 Berny optimization.
 Initialization pass.
                           ----------------------------
                           !    Initial Parameters    !
                           ! (Angstroms and Degrees)  !
 --------------------------                            --------------------------
 ! Name  Definition              Value          Derivative Info.                !
 --------------------------------------------------------------------------------
 ! R1    R(1,2)                  0.9722         estimate D2E/DX2                !
 ! R2    R(2,3)                  1.4218         estimate D2E/DX2                !
 ! R3    R(3,4)                  1.0948         estimate D2E/DX2                !
 ! R4    R(3,5)                  1.0948         estimate D2E/DX2                !
 ! R5    R(3,6)                  1.5166         estimate D2E/DX2                !
 ! R6    R(6,7)                  1.0966         estimate D2E/DX2                !
 ! R7    R(6,8)                  1.0971         estimate D2E/DX2                !
 ! R8    R(6,9)                  1.42           estimate D2E/DX2                !
 ! R9    R(9,10)                 1.4231         estimate D2E/DX2                !
 ! R10   R(10,11)                1.0969         estimate D2E/DX2                !
 ! R11   R(10,12)                1.0966         estimate D2E/DX2                !
 ! R12   R(10,13)                1.5167         estimate D2E/DX2                !
 ! R13   R(13,14)                1.0975         estimate D2E/DX2                !
 ! R14   R(13,15)                1.0972         estimate D2E/DX2                !
 ! R15   R(13,16)                1.42           estimate D2E/DX2                !
 ! R16   R(16,17)                1.4227         estimate D2E/DX2                !
 ! R17   R(17,18)                1.0968         estimate D2E/DX2                !
 ! R18   R(17,19)                1.0963         estimate D2E/DX2                !
 ! R19   R(17,20)                1.5166         estimate D2E/DX2                !
 ! R20   R(20,21)                1.095          estimate D2E/DX2                !
 ! R21   R(20,22)                1.095          estimate D2E/DX2                !
 ! R22   R(20,23)                1.4218         estimate D2E/DX2                !
 ! R23   R(23,24)                1.2673         estimate D2E/DX2                !
 ! A1    A(1,2,3)              106.9897         estimate D2E/DX2                !
 ! A2    A(2,3,4)              109.2361         estimate D2E/DX2                !
 ! A3    A(2,3,5)              109.2257         estimate D2E/DX2                !
 ! A4    A(2,3,6)              109.0559         estimate D2E/DX2                !
 ! A5    A(4,3,5)              107.885          estimate D2E/DX2                !
 ! A6    A(4,3,6)              110.6928         estimate D2E/DX2                !
 ! A7    A(5,3,6)              110.715          estimate D2E/DX2                !
 ! A8    A(3,6,7)              109.8379         estimate D2E/DX2                !
 ! A9    A(3,6,8)              109.8758         estimate D2E/DX2                !
 ! A10   A(3,6,9)              109.0805         estimate D2E/DX2                !
 ! A11   A(7,6,8)              107.609          estimate D2E/DX2                !
 ! A12   A(7,6,9)              110.2212         estimate D2E/DX2                !
 ! A13   A(8,6,9)              110.2034         estimate D2E/DX2                !
 ! A14   A(6,9,10)             111.5267         estimate D2E/DX2                !
 ! A15   A(9,10,11)            110.0151         estimate D2E/DX2                !
 ! A16   A(9,10,12)            110.2341         estimate D2E/DX2                !
 ! A17   A(9,10,13)            109.0687         estimate D2E/DX2                !
 ! A18   A(11,10,12)           107.6901         estimate D2E/DX2                !
 ! A19   A(11,10,13)           109.9576         estimate D2E/DX2                !
 ! A20   A(12,10,13)           109.8636         estimate D2E/DX2                !
 ! A21   A(10,13,14)           109.8883         estimate D2E/DX2                !
 ! A22   A(10,13,15)           109.7947         estimate D2E/DX2                !
 ! A23   A(10,13,16)           109.0319         estimate D2E/DX2                !
 ! A24   A(14,13,15)           107.6041         estimate D2E/DX2                !
 ! A25   A(14,13,16)           110.1444         estimate D2E/DX2                !
 ! A26   A(15,13,16)           110.3652         estimate D2E/DX2                !
 ! A27   A(13,16,17)           111.4668         estimate D2E/DX2                !
 ! A28   A(16,17,18)           110.0124         estimate D2E/DX2                !
 ! A29   A(16,17,19)           110.2331         estimate D2E/DX2                !
 ! A30   A(16,17,20)           109.0574         estimate D2E/DX2                !
 ! A31   A(18,17,19)           107.6579         estimate D2E/DX2                !
 ! A32   A(18,17,20)           109.9773         estimate D2E/DX2                !
 ! A33   A(19,17,20)           109.8912         estimate D2E/DX2                !
 ! A34   A(17,20,21)           111.4134         estimate D2E/DX2                !
 ! A35   A(17,20,22)           110.84           estimate D2E/DX2                !
 ! A36   A(17,20,23)           109.0559         estimate D2E/DX2                !
 ! A37   A(21,20,22)           107.3652         estimate D2E/DX2                !
 ! A38   A(21,20,23)           109.2869         estimate D2E/DX2                !
 ! A39   A(22,20,23)           108.8265         estimate D2E/DX2                !
 ! A40   A(20,23,24)            92.8741         estimate D2E/DX2                !
 ! D1    D(1,2,3,4)            -58.8492         estimate D2E/DX2                !
 ! D2    D(1,2,3,5)             58.9368         estimate D2E/DX2                !
 ! D3    D(1,2,3,6)           -179.9458         estimate D2E/DX2                !
 ! D4    D(2,3,6,7)             58.2444         estimate D2E/DX2                !
 ! D5    D(2,3,6,8)            -59.9458         estimate D2E/DX2                !
 ! D6    D(2,3,6,9)            179.1485         estimate D2E/DX2                !
 ! D7    D(4,3,6,7)            -61.9591         estimate D2E/DX2                !
 ! D8    D(4,3,6,8)            179.8507         estimate D2E/DX2                !
 ! D9    D(4,3,6,9)             58.945          estimate D2E/DX2                !
 ! D10   D(5,3,6,7)            178.4489         estimate D2E/DX2                !
 ! D11   D(5,3,6,8)             60.2587         estimate D2E/DX2                !
 ! D12   D(5,3,6,9)            -60.647          estimate D2E/DX2                !
 ! D13   D(3,6,9,10)          -179.9605         estimate D2E/DX2                !
 ! D14   D(7,6,9,10)           -59.2909         estimate D2E/DX2                !
 ! D15   D(8,6,9,10)            59.3342         estimate D2E/DX2                !
 ! D16   D(6,9,10,11)          -60.2941         estimate D2E/DX2                !
 ! D17   D(6,9,10,12)           58.3222         estimate D2E/DX2                !
 ! D18   D(6,9,10,13)          179.024          estimate D2E/DX2                !
 ! D19   D(9,10,13,14)          58.2516         estimate D2E/DX2                !
 ! D20   D(9,10,13,15)         -59.9141         estimate D2E/DX2                !
 ! D21   D(9,10,13,16)         179.0619         estimate D2E/DX2                !
 ! D22   D(11,10,13,14)        -62.4656         estimate D2E/DX2                !
 ! D23   D(11,10,13,15)        179.3688         estimate D2E/DX2                !
 ! D24   D(11,10,13,16)         58.3447         estimate D2E/DX2                !
 ! D25   D(12,10,13,14)        179.18           estimate D2E/DX2                !
 ! D26   D(12,10,13,15)         61.0144         estimate D2E/DX2                !
 ! D27   D(12,10,13,16)        -60.0097         estimate D2E/DX2                !
 ! D28   D(10,13,16,17)        179.0264         estimate D2E/DX2                !
 ! D29   D(14,13,16,17)        -60.3202         estimate D2E/DX2                !
 ! D30   D(15,13,16,17)         58.3515         estimate D2E/DX2                !
 ! D31   D(13,16,17,18)        -59.263          estimate D2E/DX2                !
 ! D32   D(13,16,17,19)         59.3115         estimate D2E/DX2                !
 ! D33   D(13,16,17,20)       -179.9604         estimate D2E/DX2                !
 ! D34   D(16,17,20,21)         58.4279         estimate D2E/DX2                !
 ! D35   D(16,17,20,22)        -61.0651         estimate D2E/DX2                !
 ! D36   D(16,17,20,23)        179.1464         estimate D2E/DX2                !
 ! D37   D(18,17,20,21)        -62.291          estimate D2E/DX2                !
 ! D38   D(18,17,20,22)        178.216          estimate D2E/DX2                !
 ! D39   D(18,17,20,23)         58.4275         estimate D2E/DX2                !
 ! D40   D(19,17,20,21)        179.3652         estimate D2E/DX2                !
 ! D41   D(19,17,20,22)         59.8722         estimate D2E/DX2                !
 ! D42   D(19,17,20,23)        -59.9163         estimate D2E/DX2                !
 ! D43   D(17,20,23,24)       -179.3825         estimate D2E/DX2                !
 ! D44   D(21,20,23,24)        -57.37           estimate D2E/DX2                !
 ! D45   D(22,20,23,24)         59.5914         estimate D2E/DX2                !
 --------------------------------------------------------------------------------
 Trust Radius=3.00D-01 FncErr=1.00D-07 GrdErr=1.00D-07
 Number of steps in this run= 118 maximum allowed number of steps= 144.
 GradGradGradGradGradGradGradGradGradGradGradGradGradGradGradGradGradGrad

                          Input orientation:                          
 ---------------------------------------------------------------------
 Center     Atomic      Atomic             Coordinates (Angstroms)
 Number     Number       Type             X           Y           Z
 ---------------------------------------------------------------------
      1          1           0       -6.102000   -0.364000    0.025000
      2          8           0       -5.354000    0.257000    0.033000
      3          6           0       -4.166000   -0.523000   -0.009000
      4          1           0       -4.145000   -1.195000    0.855000
      5          1           0       -4.171000   -1.139000   -0.914000
      6          6           0       -2.965000    0.403000    0.003000
      7          1           0       -2.989000    1.032000    0.901000
      8          1           0       -2.998000    1.068000   -0.869000
      9          8           0       -1.778000   -0.376000   -0.019000
     10          6           0       -0.615000    0.444000   -0.008000
     11          1           0       -0.607000    1.096000   -0.890000
     12          1           0       -0.612000    1.086000    0.881000
     13          6           0        0.616000   -0.442000   -0.008000
     14          1           0        0.606000   -1.095000   -0.890000
     15          1           0        0.611000   -1.085000    0.881000
     16          8           0        1.776000    0.377000   -0.019000
     17          6           0        2.965000   -0.404000    0.003000
     18          1           0        2.985000   -1.032000    0.902000
     19          1           0        2.998000   -1.069000   -0.868000
     20          6           0        4.166000    0.522000   -0.009000
     21          1           0        4.152000    1.206000    0.846000
     22          1           0        4.177000    1.134000   -0.917000
     23          8           0        5.354000   -0.258000    0.033000
     24          1           0        6.102000    0.765000    0.025000
 ---------------------------------------------------------------------
                    Distance matrix (angstroms):
                    1          2          3          4          5
     1  H    0.000000
     2  O    0.972219   0.000000
     3  C    1.942816   1.421797   0.000000
     4  H    2.282391   2.060502   1.094770   0.000000
     5  H    2.282785   2.060367   1.094763   1.770077   0.000000
     6  C    3.229480   2.393645   1.516582   2.161460   2.161733
     7  H    3.522352   2.635768   2.152081   2.509578   3.066690
     8  H    3.533366   2.649917   2.152929   3.067402   2.499761
     9  O    4.324241   3.631965   2.392541   2.652796   2.666391
    10  C    5.546271   4.742865   3.680311   3.986476   3.996481
    11  H    5.758806   4.908142   4.007967   4.561924   4.206887
    12  H    5.742416   4.888037   4.001487   4.205440   4.564990
    13  C    6.718534   6.010922   4.782686   4.896825   4.921587
    14  H    6.809468   6.180731   4.886239   5.062314   4.777263
    15  H    6.805655   6.172624   4.891592   4.757343   5.108078
    16  O    7.912895   7.131199   6.009781   6.188158   6.202104
    17  C    9.067115   8.345273   7.132003   7.204421   7.232123
    18  H    9.153629   8.482665   7.226742   7.132018   7.383606
    19  H    9.170849   8.504468   7.235945   7.348949   7.169489
    20  C   10.306211   9.523780   8.397276   8.530375   8.548890
    21  H   10.405934   9.587784   8.538711   8.637424   8.824339
    22  H   10.430207   9.618295   8.554283   8.821559   8.651916
    23  O   11.456493  10.720377   9.523780   9.580431   9.612419
    24  H   12.256111  11.467261  10.348523  10.465730  10.490065
                    6          7          8          9         10
     6  C    0.000000
     7  H    1.096641   0.000000
     8  H    1.097132   1.770389   0.000000
     9  O    1.419963   2.072531   2.072688   0.000000
    10  C    2.350383   2.609195   2.609480   1.423057   0.000000
    11  H    2.614931   2.980889   2.391256   2.072840   1.096856
    12  H    2.602687   2.377697   2.959023   2.075331   1.096583
    13  C    3.679362   3.999373   4.010289   2.394935   1.516693
    14  H    3.974103   4.544869   4.203311   2.638003   2.153436
    15  H    3.971499   4.176373   4.552229   2.649529   2.152031
    16  O    4.741122   4.897004   4.898067   3.632895   2.391964
    17  C    5.984659   6.190203   6.203591   4.743134   3.679079
    18  H    6.186269   6.320504   6.583520   4.895380   3.995832
    19  H    6.203450   6.586936   6.365437   4.900125   4.010304
    20  C    7.132003   7.230645   7.236063   6.011459   4.781636
    21  H    7.211598   7.143331   7.354099   6.198052   4.902474
    22  H    7.238019   7.393719   7.175464   6.208746   4.926017
    23  O    8.345273   8.486647   8.504574   7.133166   6.010278
    24  H    9.074250   9.137010   9.148828   7.962300   6.724747
                   11         12         13         14         15
    11  H    0.000000
    12  H    1.771035   0.000000
    13  C    2.153856   2.152461   0.000000
    14  H    2.504366   3.062144   1.097467   0.000000
    15  H    3.062144   2.491780   1.097176   1.771035   0.000000
    16  O    2.637099   2.648627   1.420029   2.072275   2.074770
    17  C    3.975756   3.973149   2.349333   2.615303   2.603068
    18  H    4.543359   4.174299   2.605448   2.979073   2.374684
    19  H    4.205203   4.553584   2.608956   2.392242   2.959227
    20  C    4.887450   4.892799   3.678559   4.008048   4.001571
    21  H    5.066940   4.765640   3.993559   4.569728   4.217652
    22  H    4.784227   5.115626   3.998847   4.209657   4.568711
    23  O    6.182133   6.174026   4.741749   4.908768   4.888669
    24  H    6.779194   6.775956   5.617307   5.873912   5.857159
                   16         17         18         19         20
    16  O    0.000000
    17  C    1.422732   0.000000
    18  H    2.072487   1.096807   0.000000
    19  H    2.074850   1.096337   1.770434   0.000000
    20  C    2.394415   1.516582   2.153973   2.152530   0.000000
    21  H    2.660985   2.170649   2.524613   3.073294   1.095024
    22  H    2.672874   2.163513   3.069394   2.499130   1.095047
    23  O    3.634283   2.393645   2.639393   2.649577   1.421797
    24  H    4.343588   3.347807   3.703245   3.714273   1.951487
                   21         22         23         24
    21  H    0.000000
    22  H    1.764647   0.000000
    23  O    2.061327   2.055600   0.000000
    24  H    2.161255   2.174661   1.267319   0.000000
 Symmetry turned off by external request.
 Stoichiometry    C6H14O4
 Framework group  C1[X(C6H14O4)]
 Deg. of freedom    66
 Full point group                 C1      NOp   1
 Rotational constants (GHZ):     10.7987304      0.2736782      0.2696245
 Standard basis: 6-31G(d) (6D, 7F)
 Integral buffers will be    131072 words long.
 Raffenetti 1 integral format.
 Two-electron integral symmetry is turned off.
   178 basis functions,   336 primitive gaussians,   178 cartesian basis functions
    41 alpha electrons       41 beta electrons
       nuclear repulsion energy       533.9893368424 Hartrees.
 NAtoms=   24 NActive=   24 NUniq=   24 SFac= 7.50D-01 NAtFMM=   80 NAOKFM=F Big=F
 One-electron integrals computed using PRISM.
 NBasis=   178 RedAO= T  NBF=   178
 NBsUse=   178 1.00D-06 NBFU=   178
 Harris functional with IExCor=  205 diagonalized for initial guess.
 ExpMin= 1.61D-01 ExpMax= 5.48D+03 ExpMxC= 8.25D+02 IAcc=1 IRadAn=         1 AccDes= 0.00D+00
 HarFok:  IExCor=  205 AccDes= 0.00D+00 IRadAn=         1 IDoV= 1
 ScaDFX=  1.000000  1.000000  1.000000  1.000000
 FoFCou: FMM=F IPFlag=           0 FMFlag=      100000 FMFlg1=           0
         NFxFlg=           0 DoJE=T BraDBF=F KetDBF=T FulRan=T
         Omega=  0.000000  0.000000  1.000000  0.000000  0.000000 ICntrl=     500 IOpCl=  0
         NMat0=    1 NMatS0=    1 NMatT0=    0 NMatD0=    1 NMtDS0=    0 NMtDT0=    0
         I1Cent=           4 NGrid=           0.
 Symmetry not used in FoFCou.
 Requested convergence on RMS density matrix=1.00D-08 within 128 cycles.
 Requested convergence on MAX density matrix=1.00D-06.
 Requested convergence on             energy=1.00D-06.
 No special actions if energy rises.
 Integral accuracy reduced to 1.0D-05 until final iterations.
 Initial convergence to 1.0D-05 achieved.  Increase integral accuracy.
 SCF Done:  E(RHF) =  -534.682068546     A.U. after   13 cycles
             Convg  =    0.7243D-08             -V/T =  2.0028

 **********************************************************************

            Population analysis using the SCF density.

 **********************************************************************

 Alpha  occ. eigenvalues --  -20.59444 -20.56744 -20.56697 -20.56358 -11.27788
 Alpha  occ. eigenvalues --  -11.27778 -11.27715 -11.27712 -11.27694 -11.27646
 Alpha  occ. eigenvalues --   -1.38190  -1.37208  -1.35507  -1.32620  -1.04364
 Alpha  occ. eigenvalues --   -0.99759  -0.94520  -0.83626  -0.83399  -0.82905
 Alpha  occ. eigenvalues --   -0.70211  -0.69788  -0.67623  -0.66899  -0.64303
 Alpha  occ. eigenvalues --   -0.64174  -0.62726  -0.60375  -0.59892  -0.57560
 Alpha  occ. eigenvalues --   -0.55431  -0.54207  -0.52024  -0.51109  -0.47949
 Alpha  occ. eigenvalues --   -0.47509  -0.46728  -0.44399  -0.44230  -0.42483
 Alpha  occ. eigenvalues --   -0.42419
 Alpha virt. eigenvalues --    0.14014   0.21363   0.23519   0.23834   0.27941
 Alpha virt. eigenvalues --    0.28110   0.28960   0.29936   0.30157   0.31647
 Alpha virt. eigenvalues --    0.32620   0.34598   0.35178   0.36143   0.36882
 Alpha virt. eigenvalues --    0.37020   0.39428   0.40863   0.41571   0.44765
 Alpha virt. eigenvalues --    0.45086   0.46119   0.54404   0.68838   0.74715
 Alpha virt. eigenvalues --    0.77242   0.78012   0.78488   0.79100   0.79138
 Alpha virt. eigenvalues --    0.81126   0.81889   0.82284   0.87728   0.90124
 Alpha virt. eigenvalues --    0.91541   0.94284   0.95684   0.96992   0.99210
 Alpha virt. eigenvalues --    1.00720   1.02222   1.06075   1.06469   1.08568
 Alpha virt. eigenvalues --    1.10289   1.10480   1.12894   1.13634   1.16195
 Alpha virt. eigenvalues --    1.17149   1.17555   1.17923   1.18604   1.19002
 Alpha virt. eigenvalues --    1.19628   1.21121   1.23562   1.26237   1.28485
 Alpha virt. eigenvalues --    1.28825   1.30161   1.31336   1.43387   1.43714
 Alpha virt. eigenvalues --    1.43955   1.47205   1.53251   1.56205   1.63014
 Alpha virt. eigenvalues --    1.65252   1.66148   1.66771   1.68693   1.68886
 Alpha virt. eigenvalues --    1.70794   1.71866   1.80283   1.82853   1.86343
 Alpha virt. eigenvalues --    1.88643   1.92648   2.03327   2.05923   2.06750
 Alpha virt. eigenvalues --    2.11765   2.12644   2.13746   2.14452   2.16910
 Alpha virt. eigenvalues --    2.19562   2.24386   2.27841   2.31936   2.34889
 Alpha virt. eigenvalues --    2.35916   2.36110   2.37338   2.39816   2.40467
 Alpha virt. eigenvalues --    2.42979   2.46047   2.47876   2.49063   2.49681
 Alpha virt. eigenvalues --    2.52180   2.59540   2.59809   2.64664   2.66507
 Alpha virt. eigenvalues --    2.70522   2.73952   2.74990   2.79087   2.84914
 Alpha virt. eigenvalues --    2.85580   2.87465   2.93372   2.96989   3.04651
 Alpha virt. eigenvalues --    3.05036   3.07405   3.12319   3.24826   3.26214
 Alpha virt. eigenvalues --    3.41739   3.42613   4.08524   4.13649   4.37894
 Alpha virt. eigenvalues --    4.56218   4.63537   4.63758   4.65126   4.83018
 Alpha virt. eigenvalues --    4.87033   4.92364
          Condensed to atoms (all electrons):
              1          2          3          4          5          6
     1  H    0.323423   0.259230  -0.022302  -0.003671  -0.003623   0.005454
     2  O    0.259230   8.403869   0.200846  -0.038666  -0.038778  -0.044517
     3  C   -0.022302   0.200846   4.774755   0.396980   0.396733   0.373098
     4  H   -0.003671  -0.038666   0.396980   0.576000  -0.044642  -0.042686
     5  H   -0.003623  -0.038778   0.396733  -0.044642   0.576668  -0.042411
     6  C    0.005454  -0.044517   0.373098  -0.042686  -0.042411   4.809475
     7  H   -0.000207   0.003989  -0.039765  -0.006060   0.005083   0.391299
     8  H   -0.000216   0.003912  -0.039489   0.005079  -0.006240   0.390957
     9  O   -0.000078   0.000839  -0.039382   0.003662   0.003581   0.195438
    10  C    0.000003  -0.000045   0.004213  -0.000179  -0.000183  -0.046765
    11  H    0.000000   0.000001  -0.000098   0.000014  -0.000007  -0.005449
    12  H    0.000000   0.000001  -0.000091  -0.000007   0.000013  -0.005624
    13  C    0.000000   0.000000  -0.000092   0.000003   0.000002   0.004240
    14  H    0.000000   0.000000   0.000003   0.000000   0.000001  -0.000171
    15  H    0.000000   0.000000   0.000003   0.000001   0.000000  -0.000177
    16  O    0.000000   0.000000   0.000000   0.000000   0.000000  -0.000039
    17  C    0.000000   0.000000   0.000000   0.000000   0.000000   0.000002
    18  H    0.000000   0.000000   0.000000   0.000000   0.000000   0.000000
    19  H    0.000000   0.000000   0.000000   0.000000   0.000000   0.000000
    20  C    0.000000   0.000000   0.000000   0.000000   0.000000   0.000000
    21  H    0.000000   0.000000   0.000000   0.000000   0.000000   0.000000
    22  H    0.000000   0.000000   0.000000   0.000000   0.000000   0.000000
    23  O    0.000000   0.000000   0.000000   0.000000   0.000000   0.000000
    24  H    0.000000   0.000000   0.000000   0.000000   0.000000   0.000000
              7          8          9         10         11         12
     1  H   -0.000207  -0.000216  -0.000078   0.000003   0.000000   0.000000
     2  O    0.003989   0.003912   0.000839  -0.000045   0.000001   0.000001
     3  C   -0.039765  -0.039489  -0.039382   0.004213  -0.000098  -0.000091
     4  H   -0.006060   0.005079   0.003662  -0.000179   0.000014  -0.000007
     5  H    0.005083  -0.006240   0.003581  -0.000183  -0.000007   0.000013
     6  C    0.391299   0.390957   0.195438  -0.046765  -0.005449  -0.005624
     7  H    0.569826  -0.045279  -0.038083  -0.005775  -0.001203   0.007166
     8  H   -0.045279   0.570940  -0.038243  -0.005548   0.007079  -0.001264
     9  O   -0.038083  -0.038243   8.482382   0.195922  -0.038301  -0.037967
    10  C   -0.005775  -0.005548   0.195922   4.789858   0.391914   0.391172
    11  H   -0.001203   0.007079  -0.038301   0.391914   0.570940  -0.045148
    12  H    0.007166  -0.001264  -0.037967   0.391172  -0.045148   0.572040
    13  C   -0.000083  -0.000097  -0.038797   0.386318  -0.040223  -0.039925
    14  H    0.000014  -0.000008   0.003733  -0.040297  -0.006023   0.005107
    15  H   -0.000008   0.000014   0.003703  -0.039992   0.005107  -0.006237
    16  O    0.000001   0.000001   0.000843  -0.039169   0.003738   0.003705
    17  C    0.000000   0.000000  -0.000040   0.004324  -0.000174  -0.000179
    18  H    0.000000   0.000000   0.000001  -0.000080   0.000014  -0.000008
    19  H    0.000000   0.000000   0.000001  -0.000096  -0.000008   0.000014
    20  C    0.000000   0.000000   0.000000  -0.000097   0.000004   0.000003
    21  H    0.000000   0.000000   0.000000   0.000003   0.000000   0.000001
    22  H    0.000000   0.000000   0.000000   0.000003   0.000001   0.000000
    23  O    0.000000   0.000000   0.000000   0.000000   0.000000   0.000000
    24  H    0.000000   0.000000   0.000000   0.000000   0.000000   0.000000
             13         14         15         16         17         18
     1  H    0.000000   0.000000   0.000000   0.000000   0.000000   0.000000
     2  O    0.000000   0.000000   0.000000   0.000000   0.000000   0.000000
     3  C   -0.000092   0.000003   0.000003   0.000000   0.000000   0.000000
     4  H    0.000003   0.000000   0.000001   0.000000   0.000000   0.000000
     5  H    0.000002   0.000001   0.000000   0.000000   0.000000   0.000000
     6  C    0.004240  -0.000171  -0.000177  -0.000039   0.000002   0.000000
     7  H   -0.000083   0.000014  -0.000008   0.000001   0.000000   0.000000
     8  H   -0.000097  -0.000008   0.000014   0.000001   0.000000   0.000000
     9  O   -0.038797   0.003733   0.003703   0.000843  -0.000040   0.000001
    10  C    0.386318  -0.040297  -0.039992  -0.039169   0.004324  -0.000080
    11  H   -0.040223  -0.006023   0.005107   0.003738  -0.000174   0.000014
    12  H   -0.039925   0.005107  -0.006237   0.003705  -0.000179  -0.000008
    13  C    4.789619   0.392110   0.391348   0.195393  -0.046633  -0.005659
    14  H    0.392110   0.571650  -0.045344  -0.038388  -0.005592  -0.001204
    15  H    0.391348  -0.045344   0.572739  -0.038071  -0.005771   0.007173
    16  O    0.195393  -0.038388  -0.038071   8.482617   0.194914  -0.037900
    17  C   -0.046633  -0.005592  -0.005771   0.194914   4.811176   0.391519
    18  H   -0.005659  -0.001204   0.007173  -0.037900   0.391519   0.569328
    19  H   -0.005365   0.007048  -0.001265  -0.037735   0.391117  -0.045329
    20  C    0.004211  -0.000093  -0.000088  -0.039011   0.370379  -0.040046
    21  H   -0.000163   0.000013  -0.000007   0.003485  -0.039888  -0.006011
    22  H   -0.000174  -0.000006   0.000012   0.003447  -0.040707   0.005087
    23  O   -0.000045   0.000001   0.000001   0.000873  -0.043707   0.004037
    24  H    0.000004   0.000000   0.000000  -0.000110   0.007622  -0.000247
             19         20         21         22         23         24
     1  H    0.000000   0.000000   0.000000   0.000000   0.000000   0.000000
     2  O    0.000000   0.000000   0.000000   0.000000   0.000000   0.000000
     3  C    0.000000   0.000000   0.000000   0.000000   0.000000   0.000000
     4  H    0.000000   0.000000   0.000000   0.000000   0.000000   0.000000
     5  H    0.000000   0.000000   0.000000   0.000000   0.000000   0.000000
     6  C    0.000000   0.000000   0.000000   0.000000   0.000000   0.000000
     7  H    0.000000   0.000000   0.000000   0.000000   0.000000   0.000000
     8  H    0.000000   0.000000   0.000000   0.000000   0.000000   0.000000
     9  O    0.000001   0.000000   0.000000   0.000000   0.000000   0.000000
    10  C   -0.000096  -0.000097   0.000003   0.000003   0.000000   0.000000
    11  H   -0.000008   0.000004   0.000000   0.000001   0.000000   0.000000
    12  H    0.000014   0.000003   0.000001   0.000000   0.000000   0.000000
    13  C   -0.005365   0.004211  -0.000163  -0.000174  -0.000045   0.000004
    14  H    0.007048  -0.000093   0.000013  -0.000006   0.000001   0.000000
    15  H   -0.001265  -0.000088  -0.000007   0.000012   0.000001   0.000000
    16  O   -0.037735  -0.039011   0.003485   0.003447   0.000873  -0.000110
    17  C    0.391117   0.370379  -0.039888  -0.040707  -0.043707   0.007622
    18  H   -0.045329  -0.040046  -0.006011   0.005087   0.004037  -0.000247
    19  H    0.569647  -0.039644   0.005012  -0.006419   0.003962  -0.000254
    20  C   -0.039644   4.819643   0.396441   0.396539   0.166831  -0.034748
    21  H    0.005012   0.396441   0.581585  -0.047896  -0.038683  -0.009887
    22  H   -0.006419   0.396539  -0.047896   0.583673  -0.039666  -0.009209
    23  O    0.003962   0.166831  -0.038683  -0.039666   8.382999   0.236454
    24  H   -0.000254  -0.034748  -0.009887  -0.009209   0.236454   0.447863
 Mulliken atomic charges:
              1
     1  H    0.441985
     2  O   -0.750682
     3  C   -0.005414
     4  H    0.154172
     5  H    0.153801
     6  C    0.017877
     7  H    0.159085
     8  H    0.158401
     9  O   -0.659216
    10  C    0.014497
    11  H    0.157824
    12  H    0.157229
    13  C    0.014009
    14  H    0.157446
    15  H    0.156860
    16  O   -0.658595
    17  C    0.011638
    18  H    0.159326
    19  H    0.159315
    20  C   -0.000322
    21  H    0.155994
    22  H    0.155316
    23  O   -0.673058
    24  H    0.362512
 Sum of Mulliken atomic charges =   0.00000
 Mulliken charges with hydrogens summed into heavy atoms:
              1
     2  O   -0.308697
     3  C    0.302559
     6  C    0.335363
     9  O   -0.659216
    10  C    0.329550
    13  C    0.328315
    16  O   -0.658595
    17  C    0.330278
    20  C    0.310989
    23  O   -0.310546
 Sum of Mulliken charges with hydrogens summed into heavy atoms =   0.00000
 DipInt: DoE/N= T F RetVal/Mat= T F Init=T NMatP=  1 IDeriv=0 Min/MaxMlt=  0  4
 Entering OneElI...
 OneElI was handed    33470527 working-precision words.
 Multipole integrals L=0 to 4 MinM= 0 MaxM= 0.
 Requested accuracy = 0.1000D-12
 PrsmSu:  NPrtUS=   1 ThrOK=F IAlg=1
 PRISM was handed    33310437 working-precision words and  1872 shell-pairs
 IPart=  0 NShTot=        1872 NBatch=          36 AvBLen=        52.0
 Electronic moments (au):
        -82.00000000         -0.08598592         -0.65122355         -0.06254918
      -3642.01130570       -139.37201769        -79.55026420        -15.98686050
          0.17552556         -0.01539274        -50.43331256         -3.47517000
          1.19341355        -12.61629836        -80.07685673        -86.48976029
         -2.11711496         -0.53724029          0.58523039          9.15968430
    -292396.45316098       -738.32463774       -351.55579623       -632.90386768
         10.69166702       -242.88051822         -0.49357856          1.15696182
          0.27367781      -5465.75717221      -3139.51022473       -259.20755452
         -3.59491812         -1.13825381        -52.67651605
 Electronic spatial extent (au):  <R**2>=           3860.9336
 DipInt: DoE/N= F T RetVal/Mat= T F Init=T NMatP=  1 IDeriv=0 Min/MaxMlt=  0  4
 Nuclear    moments (au):
         82.00000000         -0.00566918          0.77100826          0.04535343
       3601.46749294         93.80303899         33.63884530         29.45195388
         -0.16696157          0.02866494          2.84083936          2.91794725
         -1.28818194         19.25296765         99.86076469         82.97188260
         -0.23710668         -0.04936414         -0.46613508         -8.13971486
     282392.19558779        260.79913636         93.98894663       2640.21022920
        -11.22924828        214.28792810          0.62008912         -1.29626876
         -0.32785572       3508.58811187       1070.05958429        145.84588036
          4.84868039          1.72554793         41.01927488
 Total      moments (au):
          0.00000000         -0.09165509          0.11978471         -0.01719575
        -40.54381276        -45.56897870        -45.91141890         13.46509338
          0.00856399          0.01327220        -47.59247320         -0.55722275
         -0.09476839          6.63666929         19.78390796         -3.51787769
         -2.35422164         -0.58660443          0.11909531          1.01996944
     -10004.25757320       -477.52550138       -257.56684960       2007.30636152
         -0.53758126        -28.59259012          0.12651056         -0.13930694
         -0.05417792      -1957.16906034      -2069.45064044       -113.36167416
          1.25376227          0.58729412        -11.65724117
 Traceless Quadrup. (au):
          3.46425736         -1.56090858         -1.90334878         13.46509338
          0.00856399          0.01327220
 Charge=              0.0000 electrons
 Dipole moment (field-independent basis, Debye):
    X=             -0.2330    Y=              0.3045    Z=             -0.0437  Tot=              0.3858
 Quadrupole moment (field-independent basis, Debye-Ang):
   XX=            -54.5328   YY=            -61.2918   ZZ=            -61.7524
   XY=             18.1110   XZ=              0.0115   YZ=              0.0179
 Traceless Quadrupole moment (field-independent basis, Debye-Ang):
   XX=              4.6595   YY=             -2.0995   ZZ=             -2.5601
   XY=             18.1110   XZ=              0.0115   YZ=              0.0179
 Octapole moment (field-independent basis, Debye-Ang**2):
  XXX=            -33.8745  YYY=             -0.3966  ZZZ=             -0.0675  XYY=              4.7237
  XXY=             14.0814  XXZ=             -2.5039  XZZ=             -1.6756  YZZ=             -0.4175
  YYZ=              0.0848  XYZ=              0.7260
 Hexadecapole moment (field-independent basis, Debye-Ang**3):
 XXXX=          -3768.0829 YYYY=           -179.8590 ZZZZ=            -97.0120 XXXY=            756.0478
 XXXZ=             -0.2025 YYYX=            -10.7693 YYYZ=              0.0476 ZZZX=             -0.0525
 ZZZY=             -0.0204 XXYY=           -737.1637 XXZZ=           -779.4543 YYZZ=            -42.6974
 XXYZ=              0.4722 YYXZ=              0.2212 ZZXY=             -4.3907
 N-N= 5.339893368424D+02 E-N=-2.325326228063D+03  KE= 5.331776024886D+02
 Entering OneElI...
 OneElI was handed    33406381 working-precision words.
 Calculate electrostatic properties
    NBasis =   178  MinDer = 0  MaxDer = 0
    NGrid  =    24  NMatD  =   1
 Requested accuracy = 0.1000D-12
 PrsmSu:  NPrtUS=   1 ThrOK=F IAlg=1
 PRISM was handed    33258905 working-precision words and  1677 shell-pairs
 IPart=  0 NShTot=       40248 NBatch=        1677 AvBLen=        24.0
 --------------------------------------------------------
       Center         ----      EFG at Nuclei      ----
                      3XX-RR        3YY-RR        3ZZ-RR
 --------------------------------------------------------
     1   Atom       -0.186642     -0.064103      0.250745
     2   Atom       -1.804048     -0.183299      1.987346
     3   Atom       -0.197422      0.003614      0.193808
     4   Atom        0.135563     -0.015036     -0.120527
     5   Atom        0.135687      0.011280     -0.146967
     6   Atom       -0.201003      0.001097      0.199906
     7   Atom        0.132771      0.007594     -0.140365
     8   Atom        0.132277     -0.009002     -0.123275
     9   Atom       -1.884809     -0.084115      1.968924
    10   Atom       -0.184520     -0.014784      0.199305
    11   Atom        0.133189     -0.003377     -0.129812
    12   Atom        0.133149      0.001446     -0.134595
    13   Atom       -0.182571     -0.014610      0.197181
    14   Atom        0.132666     -0.003605     -0.129061
    15   Atom        0.132645      0.001206     -0.133851
    16   Atom       -1.881614     -0.087700      1.969314
    17   Atom       -0.201584      0.004316      0.197268
    18   Atom        0.132222      0.008376     -0.140597
    19   Atom        0.132462     -0.008916     -0.123546
    20   Atom       -0.190425      0.003885      0.186540
    21   Atom        0.133151     -0.019435     -0.113715
    22   Atom        0.133678      0.013612     -0.147290
    23   Atom       -1.522974     -0.944000      2.466974
    24   Atom       -0.030910     -0.004600      0.035510
 --------------------------------------------------------
                        XY            XZ            YZ
 --------------------------------------------------------
     1   Atom       -0.309578     -0.003020     -0.005123
     2   Atom       -0.064704      0.055930     -0.066896
     3   Atom        0.230017      0.013372     -0.009417
     4   Atom        0.007038     -0.005805      0.211965
     5   Atom        0.000817     -0.001792     -0.203774
     6   Atom        0.234270      0.006706     -0.004991
     7   Atom        0.006734      0.004706     -0.202727
     8   Atom        0.009115     -0.007192      0.207408
     9   Atom       -0.033674      0.014939     -0.043072
    10   Atom       -0.244076     -0.003420     -0.002529
    11   Atom       -0.003904     -0.000378      0.206067
    12   Atom       -0.002670      0.002018     -0.204913
    13   Atom       -0.240759      0.003423      0.002488
    14   Atom       -0.004240     -0.000108     -0.205430
    15   Atom       -0.003003     -0.001526      0.204304
    16   Atom       -0.028416     -0.013233      0.041450
    17   Atom        0.242042     -0.007766      0.005831
    18   Atom        0.006270     -0.003644      0.202448
    19   Atom        0.009409      0.007212     -0.208412
    20   Atom        0.217961     -0.014325      0.009166
    21   Atom        0.004209      0.004628     -0.212791
    22   Atom       -0.001811      0.002464      0.202398
    23   Atom       -0.636198     -0.062432      0.064911
    24   Atom       -0.026613     -0.000686      0.000338
 --------------------------------------------------------


 ---------------------------------------------------------------------------------
              Nuclear Quadrupole in Principal Axis System
 ---------------------------------------------------------------------------------

       Atom             a.u.   MegaHertz   Gauss  10(-4) cm-1        Axes

              Baa    -0.4410  -235.297   -83.960   -78.487  0.7727  0.6348  0.0081
     1 H(1)   Bbb     0.1901   101.450    36.200    33.840 -0.6346  0.7721  0.0336
              Bcc     0.2509   133.846    47.760    44.646  0.0151 -0.0311  0.9994
 
              Baa    -1.8074   130.780    46.666    43.624  0.9991  0.0392 -0.0140
     2 O(17)  Bbb    -0.1829    13.236     4.723     4.415 -0.0388  0.9987  0.0318
              Bcc     1.9903  -144.016   -51.388   -48.039  0.0153 -0.0312  0.9994
 
              Baa    -0.3484   -46.754   -16.683   -15.596  0.8364 -0.5473 -0.0301
     3 C(13)  Bbb     0.1541    20.680     7.379     6.898  0.5478  0.8365  0.0139
              Bcc     0.1943    26.074     9.304     8.697  0.0176 -0.0281  0.9994
 
              Baa    -0.2864  -152.809   -54.526   -50.971  0.0211 -0.6158  0.7876
     4 H(1)   Bbb     0.1355    72.294    25.796    24.115  0.9914 -0.0887 -0.0959
              Bcc     0.1509    80.515    28.730    26.857  0.1289  0.7829  0.6086
 
              Baa    -0.2864  -152.832   -54.534   -50.979  0.0024  0.5648  0.8252
     5 H(1)   Bbb     0.1355    72.298    25.798    24.116  0.9939 -0.0921  0.0601
              Bcc     0.1509    80.534    28.737    26.863  0.1099  0.8201 -0.5616
 
              Baa    -0.3552   -47.666   -17.008   -15.900  0.8354 -0.5495 -0.0150
     6 C(13)  Bbb     0.1552    20.823     7.430     6.946  0.5496  0.8353  0.0108
              Bcc     0.2000    26.843     9.578     8.954  0.0066 -0.0173  0.9998
 
              Baa    -0.2823  -150.639   -53.752   -50.248 -0.0186  0.5732  0.8192
     7 H(1)   Bbb     0.1324    70.667    25.216    23.572  0.9863 -0.1238  0.1090
              Bcc     0.1499    79.972    28.536    26.676  0.1639  0.8100 -0.5631
 
              Baa    -0.2816  -150.237   -53.608   -50.114  0.0272 -0.6059  0.7951
     8 H(1)   Bbb     0.1321    70.476    25.148    23.508  0.9853 -0.1179 -0.1235
              Bcc     0.1495    79.761    28.461    26.605  0.1685  0.7868  0.5938
 
              Baa    -1.8855   136.433    48.683    45.509  0.9998  0.0186 -0.0037
     9 O(17)  Bbb    -0.0844     6.107     2.179     2.037 -0.0185  0.9996  0.0211
              Bcc     1.9699  -142.540   -50.862   -47.546  0.0041 -0.0210  0.9998
 
              Baa    -0.3581   -48.053   -17.146   -16.029  0.8150  0.5795  0.0076
    10 C(13)  Bbb     0.1588    21.304     7.602     7.106 -0.5795  0.8150  0.0019
              Bcc     0.1993    26.749     9.545     8.923 -0.0051 -0.0060  1.0000
 
              Baa    -0.2822  -150.542   -53.717   -50.215 -0.0049 -0.5945  0.8041
    11 H(1)   Bbb     0.1325    70.701    25.228    23.583  0.9797  0.1584  0.1230
              Bcc     0.1496    79.841    28.489    26.632 -0.2005  0.7884  0.5816
 
              Baa    -0.2825  -150.719   -53.780   -50.274 -0.0002  0.5852  0.8109
    12 H(1)   Bbb     0.1325    70.688    25.223    23.579  0.9808  0.1580 -0.1138
              Bcc     0.1500    80.031    28.557    26.696 -0.1948  0.7953 -0.5740
 
              Baa    -0.3536   -47.451   -16.932   -15.828  0.8153  0.5791 -0.0077
    13 C(13)  Bbb     0.1564    20.987     7.489     7.000 -0.5791  0.8153 -0.0011
              Bcc     0.1972    26.464     9.443     8.827  0.0056  0.0054  1.0000
 
              Baa    -0.2811  -150.005   -53.525   -50.036  0.0063  0.5950  0.8037
    14 H(1)   Bbb     0.1320    70.431    25.131    23.493  0.9800  0.1563 -0.1234
              Bcc     0.1491    79.574    28.394    26.543 -0.1991  0.7884 -0.5821
 
              Baa    -0.2815  -150.194   -53.593   -50.099 -0.0013 -0.5857  0.8105
    15 H(1)   Bbb     0.1320    70.423    25.129    23.491  0.9811  0.1562  0.1144
              Bcc     0.1495    79.771    28.464    26.609 -0.1936  0.7953  0.5745
 
              Baa    -1.8821   136.188    48.595    45.427  0.9999  0.0158  0.0033
    16 O(17)  Bbb    -0.0881     6.374     2.275     2.126 -0.0157  0.9997 -0.0202
              Bcc     1.9702  -142.562   -50.870   -47.554 -0.0036  0.0202  0.9998
 
              Baa    -0.3618   -48.554   -17.325   -16.196  0.8340 -0.5516  0.0173
    17 C(13)  Bbb     0.1644    22.058     7.871     7.358  0.5518  0.8338 -0.0175
              Bcc     0.1974    26.495     9.454     8.838 -0.0048  0.0242  0.9997
 
              Baa    -0.2819  -150.425   -53.675   -50.176  0.0159 -0.5722  0.8200
    18 H(1)   Bbb     0.1318    70.323    25.093    23.457  0.9855 -0.1298 -0.1097
              Bcc     0.1501    80.102    28.583    26.719  0.1692  0.8098  0.5618
 
              Baa    -0.2827  -150.833   -53.821   -50.313 -0.0275  0.6061  0.7949
    19 H(1)   Bbb     0.1322    70.552    25.175    23.534  0.9845 -0.1213  0.1266
              Bcc     0.1505    80.281    28.646    26.779  0.1731  0.7861 -0.5934
 
              Baa    -0.3325   -44.613   -15.919   -14.881  0.8383 -0.5442  0.0328
    20 C(13)  Bbb     0.1454    19.506     6.960     6.507  0.5444  0.8388  0.0027
              Bcc     0.1871    25.107     8.959     8.375 -0.0289  0.0156  0.9995
 
              Baa    -0.2846  -151.859   -54.187   -50.655 -0.0149  0.6259  0.7797
    21 H(1)   Bbb     0.1332    71.088    25.366    23.713  0.9997 -0.0072  0.0249
              Bcc     0.1514    80.771    28.821    26.942  0.0212  0.7799 -0.6256
 
              Baa    -0.2847  -151.882   -54.195   -50.662 -0.0073 -0.5615  0.8274
    22 H(1)   Bbb     0.1337    71.336    25.454    23.795  1.0000  0.0014  0.0098
              Bcc     0.1510    80.546    28.741    26.867 -0.0066  0.8275  0.5615
 
              Baa    -1.9325   139.836    49.897    46.644  0.8410  0.5410  0.0040
    23 O(17)  Bbb    -0.5371    38.866    13.868    12.964 -0.5407  0.8407 -0.0294
              Bcc     2.4696  -178.702   -63.765   -59.608 -0.0192  0.0226  0.9996
 
              Baa    -0.0474   -25.314    -9.033    -8.444  0.8495  0.5276  0.0049
    24 H(1)   Bbb     0.0119     6.357     2.268     2.120 -0.5273  0.8492 -0.0275
              Bcc     0.0355    18.957     6.764     6.323 -0.0186  0.0208  0.9996
 

 ---------------------------------------------------------------------------------

 No NMR shielding tensors so no spin-rotation constants.
 Leave Link  601 at Mon Jan 14 11:29:02 2019, MaxMem=   33554432 cpu:       0.1
 Merz-Kollman atomic radii used.
 Atom Element Radius
    1     1    1.20
    2     8    1.40
    3     6    1.50
    4     1    1.20
    5     1    1.20
    6     6    1.50
    7     1    1.20
    8     1    1.20
    9     8    1.40
   10     6    1.50
   11     1    1.20
   12     1    1.20
   13     6    1.50
   14     1    1.20
   15     1    1.20
   16     8    1.40
   17     6    1.50
   18     1    1.20
   19     1    1.20
   20     6    1.50
   21     1    1.20
   22     1    1.20
   23     8    1.40
   24     1    1.20
 Generate VDW surfaces: Layer= 4 Dens= 6 Start= 1.400 Inc= 0.200

 **********************************************************************

            Electrostatic Properties Using The SCF Density

 **********************************************************************

       Atomic Center    1 is at  -6.102000 -0.364000  0.025000
       Atomic Center    2 is at  -5.354000  0.257000  0.033000
       Atomic Center    3 is at  -4.166000 -0.523000 -0.009000
       Atomic Center    4 is at  -4.145000 -1.195000  0.855000
       Atomic Center    5 is at  -4.171000 -1.139000 -0.914000
       Atomic Center    6 is at  -2.965000  0.403000  0.003000
       Atomic Center    7 is at  -2.989000  1.032000  0.901000
       Atomic Center    8 is at  -2.998000  1.068000 -0.869000
       Atomic Center    9 is at  -1.778000 -0.376000 -0.019000
       Atomic Center   10 is at  -0.615000  0.444000 -0.008000
       Atomic Center   11 is at  -0.607000  1.096000 -0.890000
       Atomic Center   12 is at  -0.612000  1.086000  0.881000
       Atomic Center   13 is at   0.616000 -0.442000 -0.008000
       Atomic Center   14 is at   0.606000 -1.095000 -0.890000
       Atomic Center   15 is at   0.611000 -1.085000  0.881000
       Atomic Center   16 is at   1.776000  0.377000 -0.019000
       Atomic Center   17 is at   2.965000 -0.404000  0.003000
       Atomic Center   18 is at   2.985000 -1.032000  0.902000
       Atomic Center   19 is at   2.998000 -1.069000 -0.868000
       Atomic Center   20 is at   4.166000  0.522000 -0.009000
       Atomic Center   21 is at   4.152000  1.206000  0.846000
       Atomic Center   22 is at   4.177000  1.134000 -0.917000
       Atomic Center   23 is at   5.354000 -0.258000  0.033000
       Atomic Center   24 is at   6.102000  0.765000  0.025000
      ESP Fit Center   25 is at  -6.536816 -0.364000  1.647755
      ESP Fit Center   26 is at  -6.319408 -0.740562  1.647755
      ESP Fit Center   27 is at  -5.884592 -0.740562  1.647755
      ESP Fit Center   28 is at  -6.829461  0.056000  1.479923
      ESP Fit Center   29 is at  -6.942000 -0.364000  1.479923
      ESP Fit Center   30 is at  -6.829461 -0.784000  1.479923
      ESP Fit Center   31 is at  -6.522000 -1.091461  1.479923
      ESP Fit Center   32 is at  -6.102000 -1.204000  1.479923
      ESP Fit Center   33 is at  -7.112006  0.261370  1.212939
      ESP Fit Center   34 is at  -7.269712 -0.145717  1.212939
      ESP Fit Center   35 is at  -7.269712 -0.582283  1.212939
      ESP Fit Center   36 is at  -7.112006 -0.989370  1.212939
      ESP Fit Center   37 is at  -6.817893 -1.311996  1.212939
      ESP Fit Center   38 is at  -6.427095 -1.506591  1.212939
      ESP Fit Center   39 is at  -5.992391 -1.546872  1.212939
      ESP Fit Center   40 is at  -7.168534  0.625599  0.865000
      ESP Fit Center   41 is at  -7.412840  0.267267  0.865000
      ESP Fit Center   42 is at  -7.540672 -0.147155  0.865000
      ESP Fit Center   43 is at  -7.540672 -0.580845  0.865000
      ESP Fit Center   44 is at  -7.412840 -0.995267  0.865000
      ESP Fit Center   45 is at  -7.168534 -1.353599  0.865000
      ESP Fit Center   46 is at  -6.829461 -1.624000  0.865000
      ESP Fit Center   47 is at  -6.425751 -1.782445  0.865000
      ESP Fit Center   48 is at  -5.993273 -1.814854  0.865000
      ESP Fit Center   49 is at  -7.249461  0.783461  0.459816
      ESP Fit Center   50 is at  -7.507347  0.447378  0.459816
      ESP Fit Center   51 is at  -7.669461  0.056000  0.459816
      ESP Fit Center   52 is at  -7.724755 -0.364000  0.459816
      ESP Fit Center   53 is at  -7.669461 -0.784000  0.459816
      ESP Fit Center   54 is at  -7.507347 -1.175378  0.459816
      ESP Fit Center   55 is at  -7.249461 -1.511461  0.459816
      ESP Fit Center   56 is at  -6.913378 -1.769347  0.459816
      ESP Fit Center   57 is at  -6.522000 -1.931461  0.459816
      ESP Fit Center   58 is at  -6.102000 -1.986755  0.459816
      ESP Fit Center   59 is at  -5.682000 -1.931461  0.459816
      ESP Fit Center   60 is at  -7.461149  0.623479  0.025000
      ESP Fit Center   61 is at  -7.664024  0.254449  0.025000
      ESP Fit Center   62 is at  -7.768753 -0.153440  0.025000
      ESP Fit Center   63 is at  -7.768753 -0.574560  0.025000
      ESP Fit Center   64 is at  -7.664024 -0.982449  0.025000
      ESP Fit Center   65 is at  -7.461149 -1.351479  0.025000
      ESP Fit Center   66 is at  -7.172872 -1.658462  0.025000
      ESP Fit Center   67 is at  -6.817309 -1.884109  0.025000
      ESP Fit Center   68 is at  -6.416801 -2.014243  0.025000
      ESP Fit Center   69 is at  -5.996512 -2.040685  0.025000
      ESP Fit Center   70 is at  -7.249461  0.783461 -0.409816
      ESP Fit Center   71 is at  -7.507347  0.447378 -0.409816
      ESP Fit Center   72 is at  -7.669461  0.056000 -0.409816
      ESP Fit Center   73 is at  -7.724755 -0.364000 -0.409816
      ESP Fit Center   74 is at  -7.669461 -0.784000 -0.409816
      ESP Fit Center   75 is at  -7.507347 -1.175378 -0.409816
      ESP Fit Center   76 is at  -7.249461 -1.511461 -0.409816
      ESP Fit Center   77 is at  -6.913378 -1.769347 -0.409816
      ESP Fit Center   78 is at  -6.522000 -1.931461 -0.409816
      ESP Fit Center   79 is at  -6.102000 -1.986755 -0.409816
      ESP Fit Center   80 is at  -5.682000 -1.931461 -0.409816
      ESP Fit Center   81 is at  -7.168534  0.625599 -0.815000
      ESP Fit Center   82 is at  -7.412840  0.267267 -0.815000
      ESP Fit Center   83 is at  -7.540672 -0.147155 -0.815000
      ESP Fit Center   84 is at  -7.540672 -0.580845 -0.815000
      ESP Fit Center   85 is at  -7.412840 -0.995267 -0.815000
      ESP Fit Center   86 is at  -7.168534 -1.353599 -0.815000
      ESP Fit Center   87 is at  -6.829461 -1.624000 -0.815000
      ESP Fit Center   88 is at  -6.425751 -1.782445 -0.815000
      ESP Fit Center   89 is at  -5.993273 -1.814854 -0.815000
      ESP Fit Center   90 is at  -7.112006  0.261370 -1.162939
      ESP Fit Center   91 is at  -7.269712 -0.145717 -1.162939
      ESP Fit Center   92 is at  -7.269712 -0.582283 -1.162939
      ESP Fit Center   93 is at  -7.112006 -0.989370 -1.162939
      ESP Fit Center   94 is at  -6.817893 -1.311996 -1.162939
      ESP Fit Center   95 is at  -6.427095 -1.506591 -1.162939
      ESP Fit Center   96 is at  -5.992391 -1.546872 -1.162939
      ESP Fit Center   97 is at  -6.829461  0.056000 -1.429923
      ESP Fit Center   98 is at  -6.942000 -0.364000 -1.429923
      ESP Fit Center   99 is at  -6.829461 -0.784000 -1.429923
      ESP Fit Center  100 is at  -6.522000 -1.091461 -1.429923
      ESP Fit Center  101 is at  -6.102000 -1.204000 -1.429923
      ESP Fit Center  102 is at  -6.536816 -0.364000 -1.597755
      ESP Fit Center  103 is at  -6.319408 -0.740562 -1.597755
      ESP Fit Center  104 is at  -5.884592 -0.740562 -1.597755
      ESP Fit Center  105 is at  -5.354000  0.257000  1.993000
      ESP Fit Center  106 is at  -4.946493  0.257000  1.950169
      ESP Fit Center  107 is at  -5.150247  0.609911  1.950169
      ESP Fit Center  108 is at  -5.557753  0.609911  1.950169
      ESP Fit Center  109 is at  -5.761507  0.257000  1.950169
      ESP Fit Center  110 is at  -5.557753 -0.095911  1.950169
      ESP Fit Center  111 is at  -5.150247 -0.095911  1.950169
      ESP Fit Center  112 is at  -4.663601  0.655602  1.823549
      ESP Fit Center  113 is at  -4.955398  0.947399  1.823549
      ESP Fit Center  114 is at  -5.354000  1.054204  1.823549
      ESP Fit Center  115 is at  -5.752602  0.947399  1.823549
      ESP Fit Center  116 is at  -6.044399  0.655602  1.823549
      ESP Fit Center  117 is at  -6.151204  0.257000  1.823549
      ESP Fit Center  118 is at  -6.044399 -0.141602  1.823549
      ESP Fit Center  119 is at  -5.752602 -0.433399  1.823549
      ESP Fit Center  120 is at  -5.354000 -0.540204  1.823549
      ESP Fit Center  121 is at  -4.840483  1.288281  1.618673
      ESP Fit Center  122 is at  -5.247701  1.404145  1.618673
      ESP Fit Center  123 is at  -5.669276  1.365080  1.618673
      ESP Fit Center  124 is at  -6.048271  1.176363  1.618673
      ESP Fit Center  125 is at  -6.333500  0.863481  1.618673
      ESP Fit Center  126 is at  -6.486443  0.468690  1.618673
      ESP Fit Center  127 is at  -6.486443  0.045310  1.618673
      ESP Fit Center  128 is at  -5.669276 -0.851080  1.618673
      ESP Fit Center  129 is at  -4.748922  1.581937  1.344496
      ESP Fit Center  130 is at  -5.146709  1.698738  1.344496
      ESP Fit Center  131 is at  -5.561291  1.698738  1.344496
      ESP Fit Center  132 is at  -5.959078  1.581937  1.344496
      ESP Fit Center  133 is at  -6.307846  1.357798  1.344496
      ESP Fit Center  134 is at  -6.579339  1.044478  1.344496
      ESP Fit Center  135 is at  -6.751563  0.667361  1.344496
      ESP Fit Center  136 is at  -4.829472  1.871333  1.013000
      ESP Fit Center  137 is at  -5.247419  1.951060  1.013000
      ESP Fit Center  138 is at  -5.672063  1.924344  1.013000
      ESP Fit Center  139 is at  -6.076722  1.792862  1.013000
      ESP Fit Center  140 is at  -6.435970  1.564877  1.013000
      ESP Fit Center  141 is at  -6.727233  1.254712  1.013000
      ESP Fit Center  142 is at  -6.932212  0.881858  1.013000
      ESP Fit Center  143 is at  -4.545210  1.936470  0.638673
      ESP Fit Center  144 is at  -4.939205  2.074335  0.638673
      ESP Fit Center  145 is at  -5.354000  2.121071  0.638673
      ESP Fit Center  146 is at  -5.768795  2.074335  0.638673
      ESP Fit Center  147 is at  -6.162790  1.936470  0.638673
      ESP Fit Center  148 is at  -6.516229  1.714389  0.638673
      ESP Fit Center  149 is at  -6.811389  1.419229  0.638673
      ESP Fit Center  150 is at  -7.033470  1.065790  0.638673
      ESP Fit Center  151 is at  -4.440949  1.979197  0.237876
      ESP Fit Center  152 is at  -4.832517  2.135212  0.237876
      ESP Fit Center  153 is at  -5.248469  2.203404  0.237876
      ESP Fit Center  154 is at  -5.669356  2.180584  0.237876
      ESP Fit Center  155 is at  -6.075497  2.067820  0.237876
      ESP Fit Center  156 is at  -6.447901  1.870383  0.237876
      ESP Fit Center  157 is at  -6.769156  1.597507  0.237876
      ESP Fit Center  158 is at  -7.024240  1.261950  0.237876
      ESP Fit Center  159 is at  -4.440949  1.979197 -0.171876
      ESP Fit Center  160 is at  -4.832517  2.135212 -0.171876
      ESP Fit Center  161 is at  -5.248469  2.203404 -0.171876
      ESP Fit Center  162 is at  -5.669356  2.180584 -0.171876
      ESP Fit Center  163 is at  -6.075497  2.067820 -0.171876
      ESP Fit Center  164 is at  -6.447901  1.870383 -0.171876
      ESP Fit Center  165 is at  -6.769156  1.597507 -0.171876
      ESP Fit Center  166 is at  -7.024240  1.261950 -0.171876
      ESP Fit Center  167 is at  -4.545210  1.936470 -0.572673
      ESP Fit Center  168 is at  -4.939205  2.074335 -0.572673
      ESP Fit Center  169 is at  -5.354000  2.121071 -0.572673
      ESP Fit Center  170 is at  -5.768795  2.074335 -0.572673
      ESP Fit Center  171 is at  -6.162790  1.936470 -0.572673
      ESP Fit Center  172 is at  -6.516229  1.714389 -0.572673
      ESP Fit Center  173 is at  -6.811389  1.419229 -0.572673
      ESP Fit Center  174 is at  -7.033470  1.065790 -0.572673
      ESP Fit Center  175 is at  -4.829472  1.871333 -0.947000
      ESP Fit Center  176 is at  -5.247419  1.951060 -0.947000
      ESP Fit Center  177 is at  -5.672063  1.924344 -0.947000
      ESP Fit Center  178 is at  -6.076722  1.792862 -0.947000
      ESP Fit Center  179 is at  -6.435970  1.564877 -0.947000
      ESP Fit Center  180 is at  -6.727233  1.254712 -0.947000
      ESP Fit Center  181 is at  -6.932212  0.881858 -0.947000
      ESP Fit Center  182 is at  -4.748922  1.581937 -1.278496
      ESP Fit Center  183 is at  -5.146709  1.698738 -1.278496
      ESP Fit Center  184 is at  -5.561291  1.698738 -1.278496
      ESP Fit Center  185 is at  -5.959078  1.581937 -1.278496
      ESP Fit Center  186 is at  -6.307846  1.357798 -1.278496
      ESP Fit Center  187 is at  -6.579339  1.044478 -1.278496
      ESP Fit Center  188 is at  -6.751563  0.667361 -1.278496
      ESP Fit Center  189 is at  -4.840483  1.288281 -1.552673
      ESP Fit Center  190 is at  -5.247701  1.404145 -1.552673
      ESP Fit Center  191 is at  -5.669276  1.365080 -1.552673
      ESP Fit Center  192 is at  -6.048271  1.176363 -1.552673
      ESP Fit Center  193 is at  -6.333500  0.863481 -1.552673
      ESP Fit Center  194 is at  -6.486443  0.468690 -1.552673
      ESP Fit Center  195 is at  -4.663601  0.655602 -1.757549
      ESP Fit Center  196 is at  -4.955398  0.947399 -1.757549
      ESP Fit Center  197 is at  -5.354000  1.054204 -1.757549
      ESP Fit Center  198 is at  -5.752602  0.947399 -1.757549
      ESP Fit Center  199 is at  -6.044399  0.655602 -1.757549
      ESP Fit Center  200 is at  -6.151204  0.257000 -1.757549
      ESP Fit Center  201 is at  -6.044399 -0.141602 -1.757549
      ESP Fit Center  202 is at  -5.752602 -0.433399 -1.757549
      ESP Fit Center  203 is at  -4.946493  0.257000 -1.884169
      ESP Fit Center  204 is at  -5.150247  0.609911 -1.884169
      ESP Fit Center  205 is at  -5.557753  0.609911 -1.884169
      ESP Fit Center  206 is at  -5.761507  0.257000 -1.884169
      ESP Fit Center  207 is at  -5.557753 -0.095911 -1.884169
      ESP Fit Center  208 is at  -5.150247 -0.095911 -1.884169
      ESP Fit Center  209 is at  -5.354000  0.257000 -1.927000
      ESP Fit Center  210 is at  -4.166000  0.280635  1.931147
      ESP Fit Center  211 is at  -4.567818  0.172969  1.931147
      ESP Fit Center  212 is at  -4.861969 -0.121182  1.931147
      ESP Fit Center  213 is at  -5.650924 -2.007924 -0.009000
      ESP Fit Center  214 is at  -5.332697 -2.269086 -0.009000
      ESP Fit Center  215 is at  -4.969635 -2.463147 -0.009000
      ESP Fit Center  216 is at  -4.575690 -2.582649 -0.009000
      ESP Fit Center  217 is at  -3.756310 -2.582649 -0.009000
      ESP Fit Center  218 is at  -3.362365 -2.463147 -0.009000
      ESP Fit Center  219 is at  -2.999303 -2.269086 -0.009000
      ESP Fit Center  220 is at  -5.426724 -2.151721 -0.418690
      ESP Fit Center  221 is at  -4.485282  0.599160 -1.755086
      ESP Fit Center  222 is at  -4.166000  0.280635 -1.949147
      ESP Fit Center  223 is at  -4.567818  0.172969 -1.949147
      ESP Fit Center  224 is at  -4.145000 -1.195000  2.535000
      ESP Fit Center  225 is at  -3.710184 -1.195000  2.477755
      ESP Fit Center  226 is at  -3.927592 -0.818438  2.477755
      ESP Fit Center  227 is at  -4.362408 -0.818438  2.477755
      ESP Fit Center  228 is at  -4.579816 -1.195000  2.477755
      ESP Fit Center  229 is at  -4.362408 -1.571562  2.477755
      ESP Fit Center  230 is at  -3.927592 -1.571562  2.477755
      ESP Fit Center  231 is at  -3.305000 -1.195000  2.309923
      ESP Fit Center  232 is at  -3.417539 -0.775000  2.309923
      ESP Fit Center  233 is at  -3.725000 -0.467539  2.309923
      ESP Fit Center  234 is at  -4.145000 -0.355000  2.309923
      ESP Fit Center  235 is at  -4.565000 -0.467539  2.309923
      ESP Fit Center  236 is at  -4.872461 -0.775000  2.309923
      ESP Fit Center  237 is at  -4.985000 -1.195000  2.309923
      ESP Fit Center  238 is at  -4.872461 -1.615000  2.309923
      ESP Fit Center  239 is at  -4.565000 -1.922461  2.309923
      ESP Fit Center  240 is at  -4.145000 -2.035000  2.309923
      ESP Fit Center  241 is at  -3.725000 -1.922461  2.309923
      ESP Fit Center  242 is at  -3.417539 -1.615000  2.309923
      ESP Fit Center  243 is at  -2.957061 -1.195000  2.042939
      ESP Fit Center  244 is at  -3.037280 -0.765867  2.042939
      ESP Fit Center  245 is at  -3.267102 -0.394690  2.042939
      ESP Fit Center  246 is at  -3.615490 -0.131600  2.042939
      ESP Fit Center  247 is at  -4.035391 -0.012128  2.042939
      ESP Fit Center  248 is at  -4.470095 -0.052409  2.042939
      ESP Fit Center  249 is at  -4.860893 -0.247004  2.042939
      ESP Fit Center  250 is at  -5.155006 -0.569630  2.042939
      ESP Fit Center  251 is at  -5.312712 -0.976717  2.042939
      ESP Fit Center  252 is at  -5.312712 -1.413283  2.042939
      ESP Fit Center  253 is at  -5.155006 -1.820370  2.042939
      ESP Fit Center  254 is at  -4.860893 -2.142996  2.042939
      ESP Fit Center  255 is at  -4.470095 -2.337591  2.042939
      ESP Fit Center  256 is at  -4.035391 -2.377872  2.042939
      ESP Fit Center  257 is at  -3.615490 -2.258400  2.042939
      ESP Fit Center  258 is at  -3.267102 -1.995310  2.042939
      ESP Fit Center  259 is at  -3.037280 -1.624133  2.042939
      ESP Fit Center  260 is at  -2.690077 -1.195000  1.695000
      ESP Fit Center  261 is at  -5.583672 -0.978155  1.695000
      ESP Fit Center  262 is at  -5.583672 -1.411845  1.695000
      ESP Fit Center  263 is at  -5.455840 -1.826267  1.695000
      ESP Fit Center  264 is at  -5.211534 -2.184599  1.695000
      ESP Fit Center  265 is at  -4.872461 -2.455000  1.695000
      ESP Fit Center  266 is at  -4.468751 -2.613445  1.695000
      ESP Fit Center  267 is at  -4.036273 -2.645854  1.695000
      ESP Fit Center  268 is at  -3.613457 -2.549349  1.695000
      ESP Fit Center  269 is at  -3.237871 -2.332504  1.695000
      ESP Fit Center  270 is at  -2.942886 -2.014587  1.695000
      ESP Fit Center  271 is at  -2.754715 -1.623846  1.695000
      ESP Fit Center  272 is at  -5.712461 -1.615000  1.289816
      ESP Fit Center  273 is at  -5.550347 -2.006378  1.289816
      ESP Fit Center  274 is at  -5.292461 -2.342461  1.289816
      ESP Fit Center  275 is at  -4.956378 -2.600347  1.289816
      ESP Fit Center  276 is at  -4.565000 -2.762461  1.289816
      ESP Fit Center  277 is at  -4.145000 -2.817755  1.289816
      ESP Fit Center  278 is at  -3.725000 -2.762461  1.289816
      ESP Fit Center  279 is at  -3.333622 -2.600347  1.289816
      ESP Fit Center  280 is at  -2.997539 -2.342461  1.289816
      ESP Fit Center  281 is at  -2.739653 -2.006378  1.289816
      ESP Fit Center  282 is at  -2.577539 -1.615000  1.289816
      ESP Fit Center  283 is at  -5.707024 -1.813449  0.855000
      ESP Fit Center  284 is at  -5.504149 -2.182479  0.855000
      ESP Fit Center  285 is at  -5.215872 -2.489462  0.855000
      ESP Fit Center  286 is at  -4.860309 -2.715109  0.855000
      ESP Fit Center  287 is at  -4.459801 -2.845243  0.855000
      ESP Fit Center  288 is at  -4.039512 -2.871685  0.855000
      ESP Fit Center  289 is at  -3.625851 -2.792775  0.855000
      ESP Fit Center  290 is at  -3.244811 -2.613471  0.855000
      ESP Fit Center  291 is at  -2.920333 -2.345039  0.855000
      ESP Fit Center  292 is at  -2.672805 -2.004346  0.855000
      ESP Fit Center  293 is at  -5.292461 -2.342461  0.420184
      ESP Fit Center  294 is at  -4.956378 -2.600347  0.420184
      ESP Fit Center  295 is at  -4.565000 -2.762461  0.420184
      ESP Fit Center  296 is at  -4.145000 -2.817755  0.420184
      ESP Fit Center  297 is at  -3.725000 -2.762461  0.420184
      ESP Fit Center  298 is at  -3.333622 -2.600347  0.420184
      ESP Fit Center  299 is at  -2.997539 -2.342461  0.420184
      ESP Fit Center  300 is at  -4.468751 -2.613445  0.015000
      ESP Fit Center  301 is at  -4.036273 -2.645854  0.015000
      ESP Fit Center  302 is at  -3.613457 -2.549349  0.015000
      ESP Fit Center  303 is at  -5.318461 -2.286461 -0.479184
      ESP Fit Center  304 is at  -4.982378 -2.544347 -0.479184
      ESP Fit Center  305 is at  -4.591000 -2.706461 -0.479184
      ESP Fit Center  306 is at  -4.171000 -2.761755 -0.479184
      ESP Fit Center  307 is at  -3.751000 -2.706461 -0.479184
      ESP Fit Center  308 is at  -3.359622 -2.544347 -0.479184
      ESP Fit Center  309 is at  -3.023539 -2.286461 -0.479184
      ESP Fit Center  310 is at  -5.733024 -1.757449 -0.914000
      ESP Fit Center  311 is at  -5.530149 -2.126479 -0.914000
      ESP Fit Center  312 is at  -5.241872 -2.433462 -0.914000
      ESP Fit Center  313 is at  -4.886309 -2.659109 -0.914000
      ESP Fit Center  314 is at  -4.485801 -2.789243 -0.914000
      ESP Fit Center  315 is at  -4.065512 -2.815685 -0.914000
      ESP Fit Center  316 is at  -3.651851 -2.736775 -0.914000
      ESP Fit Center  317 is at  -3.270811 -2.557471 -0.914000
      ESP Fit Center  318 is at  -2.946333 -2.289039 -0.914000
      ESP Fit Center  319 is at  -2.698805 -1.948346 -0.914000
      ESP Fit Center  320 is at  -5.738461 -1.559000 -1.348816
      ESP Fit Center  321 is at  -5.576347 -1.950378 -1.348816
      ESP Fit Center  322 is at  -5.318461 -2.286461 -1.348816
      ESP Fit Center  323 is at  -4.982378 -2.544347 -1.348816
      ESP Fit Center  324 is at  -4.591000 -2.706461 -1.348816
      ESP Fit Center  325 is at  -4.171000 -2.761755 -1.348816
      ESP Fit Center  326 is at  -3.751000 -2.706461 -1.348816
      ESP Fit Center  327 is at  -3.359622 -2.544347 -1.348816
      ESP Fit Center  328 is at  -3.023539 -2.286461 -1.348816
      ESP Fit Center  329 is at  -2.765653 -1.950378 -1.348816
      ESP Fit Center  330 is at  -2.603539 -1.559000 -1.348816
      ESP Fit Center  331 is at  -2.716077 -1.139000 -1.754000
      ESP Fit Center  332 is at  -5.609672 -0.922155 -1.754000
      ESP Fit Center  333 is at  -5.609672 -1.355845 -1.754000
      ESP Fit Center  334 is at  -5.481840 -1.770267 -1.754000
      ESP Fit Center  335 is at  -5.237534 -2.128599 -1.754000
      ESP Fit Center  336 is at  -4.898461 -2.399000 -1.754000
      ESP Fit Center  337 is at  -4.494751 -2.557445 -1.754000
      ESP Fit Center  338 is at  -4.062273 -2.589854 -1.754000
      ESP Fit Center  339 is at  -3.639457 -2.493349 -1.754000
      ESP Fit Center  340 is at  -3.263871 -2.276504 -1.754000
      ESP Fit Center  341 is at  -2.968886 -1.958587 -1.754000
      ESP Fit Center  342 is at  -2.780715 -1.567846 -1.754000
      ESP Fit Center  343 is at  -2.983061 -1.139000 -2.101939
      ESP Fit Center  344 is at  -3.063280 -0.709867 -2.101939
      ESP Fit Center  345 is at  -3.293102 -0.338690 -2.101939
      ESP Fit Center  346 is at  -3.641490 -0.075600 -2.101939
      ESP Fit Center  347 is at  -4.061391  0.043872 -2.101939
      ESP Fit Center  348 is at  -4.496095  0.003591 -2.101939
      ESP Fit Center  349 is at  -4.886893 -0.191004 -2.101939
      ESP Fit Center  350 is at  -5.181006 -0.513630 -2.101939
      ESP Fit Center  351 is at  -5.338712 -0.920717 -2.101939
      ESP Fit Center  352 is at  -5.338712 -1.357283 -2.101939
      ESP Fit Center  353 is at  -5.181006 -1.764370 -2.101939
      ESP Fit Center  354 is at  -4.886893 -2.086996 -2.101939
      ESP Fit Center  355 is at  -4.496095 -2.281591 -2.101939
      ESP Fit Center  356 is at  -4.061391 -2.321872 -2.101939
      ESP Fit Center  357 is at  -3.641490 -2.202400 -2.101939
      ESP Fit Center  358 is at  -3.293102 -1.939310 -2.101939
      ESP Fit Center  359 is at  -3.063280 -1.568133 -2.101939
      ESP Fit Center  360 is at  -3.331000 -1.139000 -2.368923
      ESP Fit Center  361 is at  -3.443539 -0.719000 -2.368923
      ESP Fit Center  362 is at  -3.751000 -0.411539 -2.368923
      ESP Fit Center  363 is at  -4.171000 -0.299000 -2.368923
      ESP Fit Center  364 is at  -4.591000 -0.411539 -2.368923
      ESP Fit Center  365 is at  -4.898461 -0.719000 -2.368923
      ESP Fit Center  366 is at  -5.011000 -1.139000 -2.368923
      ESP Fit Center  367 is at  -4.898461 -1.559000 -2.368923
      ESP Fit Center  368 is at  -4.591000 -1.866461 -2.368923
      ESP Fit Center  369 is at  -4.171000 -1.979000 -2.368923
      ESP Fit Center  370 is at  -3.751000 -1.866461 -2.368923
      ESP Fit Center  371 is at  -3.443539 -1.559000 -2.368923
      ESP Fit Center  372 is at  -3.736184 -1.139000 -2.536755
      ESP Fit Center  373 is at  -3.953592 -0.762438 -2.536755
      ESP Fit Center  374 is at  -4.388408 -0.762438 -2.536755
      ESP Fit Center  375 is at  -4.605816 -1.139000 -2.536755
      ESP Fit Center  376 is at  -4.388408 -1.515562 -2.536755
      ESP Fit Center  377 is at  -3.953592 -1.515562 -2.536755
      ESP Fit Center  378 is at  -4.171000 -1.139000 -2.594000
      ESP Fit Center  379 is at  -2.965000 -0.400635  1.943147
      ESP Fit Center  380 is at  -2.563182 -0.292969  1.943147
      ESP Fit Center  381 is at  -2.161365  2.343147  0.003000
      ESP Fit Center  382 is at  -2.555310  2.462649  0.003000
      ESP Fit Center  383 is at  -3.374690  2.462649  0.003000
      ESP Fit Center  384 is at  -3.768635  2.343147  0.003000
      ESP Fit Center  385 is at  -4.131697  2.149086  0.003000
      ESP Fit Center  386 is at  -2.965000 -0.400635 -1.937147
      ESP Fit Center  387 is at  -2.563182 -0.292969 -1.937147
      ESP Fit Center  388 is at  -2.989000  1.032000  2.581000
      ESP Fit Center  389 is at  -2.554184  1.032000  2.523755
      ESP Fit Center  390 is at  -2.771592  1.408562  2.523755
      ESP Fit Center  391 is at  -3.206408  1.408562  2.523755
      ESP Fit Center  392 is at  -3.423816  1.032000  2.523755
      ESP Fit Center  393 is at  -3.206408  0.655438  2.523755
      ESP Fit Center  394 is at  -2.771592  0.655438  2.523755
      ESP Fit Center  395 is at  -2.149000  1.032000  2.355923
      ESP Fit Center  396 is at  -2.261539  1.452000  2.355923
      ESP Fit Center  397 is at  -2.569000  1.759461  2.355923
      ESP Fit Center  398 is at  -2.989000  1.872000  2.355923
      ESP Fit Center  399 is at  -3.409000  1.759461  2.355923
      ESP Fit Center  400 is at  -3.716461  1.452000  2.355923
      ESP Fit Center  401 is at  -3.829000  1.032000  2.355923
      ESP Fit Center  402 is at  -3.716461  0.612000  2.355923
      ESP Fit Center  403 is at  -3.409000  0.304539  2.355923
      ESP Fit Center  404 is at  -2.989000  0.192000  2.355923
      ESP Fit Center  405 is at  -2.569000  0.304539  2.355923
      ESP Fit Center  406 is at  -2.261539  0.612000  2.355923
      ESP Fit Center  407 is at  -1.801061  1.032000  2.088939
      ESP Fit Center  408 is at  -1.881280  1.461133  2.088939
      ESP Fit Center  409 is at  -2.111102  1.832310  2.088939
      ESP Fit Center  410 is at  -2.459490  2.095400  2.088939
      ESP Fit Center  411 is at  -2.879391  2.214872  2.088939
      ESP Fit Center  412 is at  -3.314095  2.174591  2.088939
      ESP Fit Center  413 is at  -3.704893  1.979996  2.088939
      ESP Fit Center  414 is at  -3.999006  1.657370  2.088939
      ESP Fit Center  415 is at  -4.156712  1.250283  2.088939
      ESP Fit Center  416 is at  -4.156712  0.813717  2.088939
      ESP Fit Center  417 is at  -3.999006  0.406630  2.088939
      ESP Fit Center  418 is at  -3.704893  0.084004  2.088939
      ESP Fit Center  419 is at  -3.314095 -0.110591  2.088939
      ESP Fit Center  420 is at  -2.879391 -0.150872  2.088939
      ESP Fit Center  421 is at  -2.459490 -0.031400  2.088939
      ESP Fit Center  422 is at  -2.111102  0.231690  2.088939
      ESP Fit Center  423 is at  -1.881280  0.602867  2.088939
      ESP Fit Center  424 is at  -2.081871  2.169504  1.741000
      ESP Fit Center  425 is at  -2.457457  2.386349  1.741000
      ESP Fit Center  426 is at  -2.880273  2.482854  1.741000
      ESP Fit Center  427 is at  -3.312751  2.450445  1.741000
      ESP Fit Center  428 is at  -3.716461  2.292000  1.741000
      ESP Fit Center  429 is at  -4.055534  2.021599  1.741000
      ESP Fit Center  430 is at  -4.299840  1.663267  1.741000
      ESP Fit Center  431 is at  -4.427672  1.248845  1.741000
      ESP Fit Center  432 is at  -4.427672  0.815155  1.741000
      ESP Fit Center  433 is at  -1.841539  2.179461  1.335816
      ESP Fit Center  434 is at  -2.177622  2.437347  1.335816
      ESP Fit Center  435 is at  -2.569000  2.599461  1.335816
      ESP Fit Center  436 is at  -2.989000  2.654755  1.335816
      ESP Fit Center  437 is at  -3.409000  2.599461  1.335816
      ESP Fit Center  438 is at  -3.800378  2.437347  1.335816
      ESP Fit Center  439 is at  -4.136461  2.179461  1.335816
      ESP Fit Center  440 is at  -4.394347  1.843378  1.335816
      ESP Fit Center  441 is at  -2.088811  2.450471  0.901000
      ESP Fit Center  442 is at  -2.469851  2.629775  0.901000
      ESP Fit Center  443 is at  -2.883512  2.708685  0.901000
      ESP Fit Center  444 is at  -3.303801  2.682243  0.901000
      ESP Fit Center  445 is at  -3.704309  2.552109  0.901000
      ESP Fit Center  446 is at  -4.059872  2.326462  0.901000
      ESP Fit Center  447 is at  -4.348149  2.019479  0.901000
      ESP Fit Center  448 is at  -1.841539  2.179461  0.466184
      ESP Fit Center  449 is at  -2.177622  2.437347  0.466184
      ESP Fit Center  450 is at  -2.569000  2.599461  0.466184
      ESP Fit Center  451 is at  -2.989000  2.654755  0.466184
      ESP Fit Center  452 is at  -3.409000  2.599461  0.466184
      ESP Fit Center  453 is at  -3.800378  2.437347  0.466184
      ESP Fit Center  454 is at  -4.136461  2.179461  0.466184
      ESP Fit Center  455 is at  -2.889273  2.518854 -0.029000
      ESP Fit Center  456 is at  -3.321751  2.486445 -0.029000
      ESP Fit Center  457 is at  -1.850539  2.215461 -0.434184
      ESP Fit Center  458 is at  -2.186622  2.473347 -0.434184
      ESP Fit Center  459 is at  -2.578000  2.635461 -0.434184
[...]
 6246 Fit      -0.001690
 6247 Fit      -0.000482
 6248 Fit       0.000697
 6249 Fit       0.001306
 6250 Fit       0.001290
 6251 Fit       0.000841
 6252 Fit       0.000080
 6253 Fit      -0.000961
 6254 Fit      -0.002233
 6255 Fit      -0.003569
 6256 Fit      -0.004604
 6257 Fit      -0.008143
 6258 Fit      -0.007013
 6259 Fit       0.002076
 6260 Fit       0.001480
 6261 Fit       0.000721
 6262 Fit      -0.000231
 6263 Fit      -0.001432
 6264 Fit      -0.002909
 6265 Fit      -0.004618
 6266 Fit      -0.006374
 6267 Fit      -0.007760
 6268 Fit       0.001554
 6269 Fit       0.000652
 6270 Fit      -0.000399
 6271 Fit      -0.001700
 6272 Fit      -0.003332
 6273 Fit      -0.005344
 6274 Fit      -0.007719
 6275 Fit      -0.010277
 6276 Fit       0.001425
 6277 Fit       0.000453
 6278 Fit      -0.000654
 6279 Fit      -0.002014
 6280 Fit      -0.003734
 6281 Fit      -0.005920
 6282 Fit      -0.008675
 6283 Fit      -0.012059
 6284 Fit       0.001807
 6285 Fit       0.000772
 6286 Fit      -0.000328
 6287 Fit      -0.001647
 6288 Fit      -0.003318
 6289 Fit      -0.005486
 6290 Fit      -0.008336
 6291 Fit      -0.012106
 6292 Fit       0.001056
 6293 Fit      -0.000022
 6294 Fit      -0.001276
 6295 Fit      -0.002840
 6296 Fit      -0.004865
 6297 Fit      -0.007558
 6298 Fit      -0.011212
 6299 Fit      -0.016276
 6300 Fit       0.000618
 6301 Fit      -0.000545
 6302 Fit      -0.001944
 6303 Fit      -0.003719
 6304 Fit      -0.006059
 6305 Fit      -0.009239
 6306 Fit      -0.013697
 6307 Fit      -0.000279
 6308 Fit      -0.001736
 6309 Fit      -0.003577
 6310 Fit      -0.006024
 6311 Fit      -0.009413
 6312 Fit      -0.000277
 6313 Fit      -0.001734
 6314 Fit      -0.003575
 6315 Fit      -0.006021
 6316 Fit      -0.009408
 6317 Fit       0.000622
 6318 Fit      -0.000543
 6319 Fit      -0.001942
 6320 Fit      -0.003718
 6321 Fit      -0.006057
 6322 Fit      -0.009238
 6323 Fit      -0.013697
 6324 Fit       0.001061
 6325 Fit      -0.000020
 6326 Fit      -0.001275
 6327 Fit      -0.002839
 6328 Fit      -0.004866
 6329 Fit      -0.007560
 6330 Fit      -0.011218
 6331 Fit      -0.016287
 6332 Fit       0.001813
 6333 Fit       0.000775
 6334 Fit      -0.000326
 6335 Fit      -0.001647
 6336 Fit      -0.003320
 6337 Fit      -0.005490
 6338 Fit      -0.008344
 6339 Fit      -0.012119
 6340 Fit       0.001428
 6341 Fit       0.000454
 6342 Fit      -0.000654
 6343 Fit      -0.002016
 6344 Fit      -0.003738
 6345 Fit      -0.005928
 6346 Fit      -0.008689
 6347 Fit      -0.012081
 6348 Fit       0.001556
 6349 Fit       0.000652
 6350 Fit      -0.000400
 6351 Fit      -0.001704
 6352 Fit      -0.003339
 6353 Fit      -0.005355
 6354 Fit      -0.007736
 6355 Fit      -0.010302
 6356 Fit      -0.008173
 6357 Fit      -0.007043
 6358 Fit       0.002074
 6359 Fit       0.001479
 6360 Fit       0.000719
 6361 Fit      -0.000235
 6362 Fit      -0.001438
 6363 Fit      -0.002918
 6364 Fit      -0.004631
 6365 Fit      -0.006392
 6366 Fit      -0.007785
 6367 Fit      -0.004848
 6368 Fit      -0.003986
 6369 Fit      -0.002486
 6370 Fit      -0.001334
 6371 Fit      -0.001191
 6372 Fit      -0.001797
 6373 Fit      -0.002201
 6374 Fit      -0.001699
 6375 Fit      -0.000491
 6376 Fit       0.000689
 6377 Fit       0.001300
 6378 Fit       0.001286
 6379 Fit       0.000838
 6380 Fit       0.000076
 6381 Fit      -0.000967
 6382 Fit      -0.002242
 6383 Fit      -0.003582
 6384 Fit      -0.004621
 6385 Fit      -0.002770
 6386 Fit      -0.002167
 6387 Fit      -0.001381
 6388 Fit      -0.001164
 6389 Fit      -0.001132
 6390 Fit      -0.000578
 6391 Fit       0.000235
 6392 Fit       0.000620
 6393 Fit       0.000363
 6394 Fit      -0.000408
 6395 Fit      -0.001484
 6396 Fit      -0.002470
 6397 Fit      -0.001469
 6398 Fit      -0.001104
 6399 Fit      -0.000687
 6400 Fit      -0.000149
 6401 Fit      -0.000151
 6402 Fit      -0.000946
 6403 Fit      -0.000661
 6404 Fit      -0.003020
 6405 Fit      -0.004267
 6406 Fit      -0.007358
 6407 Fit       0.016395
 6408 Fit       0.018952
 6409 Fit       0.015016
 6410 Fit       0.011873
 6411 Fit       0.015501
 6412 Fit       0.012113
 6413 Fit       0.009345
 6414 Fit       0.006960
 6415 Fit       0.004747
 6416 Fit       0.002498
 6417 Fit      -0.000012
 6418 Fit      -0.003052
 6419 Fit      -0.006980
 6420 Fit       0.015502
 6421 Fit       0.012113
 6422 Fit       0.009345
 6423 Fit       0.006960
 6424 Fit       0.004747
 6425 Fit       0.002498
 6426 Fit      -0.000012
 6427 Fit      -0.003052
 6428 Fit      -0.006979
 6429 Fit       0.018956
 6430 Fit       0.015018
 6431 Fit       0.011874
 6432 Fit       0.016400
 6433 Fit      -0.007371
 6434 Fit      -0.003032
 6435 Fit      -0.004277
 6436 Fit       0.000918
 6437 Fit       0.001371
 6438 Fit       0.001946
 6439 Fit       0.001217
 6440 Fit       0.000292
 6441 Fit       0.000000
 6442 Fit       0.000236
 6443 Fit       0.001812
 6444 Fit       0.002916
 6445 Fit       0.003024
 6446 Fit       0.002345
 6447 Fit       0.001221
 6448 Fit       0.000052
 6449 Fit      -0.000678
 6450 Fit      -0.000764
 6451 Fit      -0.000711
 6452 Fit      -0.000988
 6453 Fit      -0.000980
 6454 Fit       0.000128
 6455 Fit       0.002442
 6456 Fit       0.003888
 6457 Fit       0.004371
 6458 Fit       0.004116
 6459 Fit       0.003368
 6460 Fit       0.002287
 6461 Fit       0.000981
 6462 Fit      -0.000401
 6463 Fit      -0.001595
 6464 Fit      -0.002221
 6465 Fit      -0.002048
 6466 Fit      -0.001401
 6467 Fit      -0.001062
 6468 Fit      -0.001564
 6469 Fit      -0.002574
 6470 Fit      -0.003007
 6471 Fit      -0.001995
 6472 Fit       0.000194
 6473 Fit       0.003559
 6474 Fit       0.005318
 6475 Fit       0.005917
 6476 Fit       0.005729
 6477 Fit       0.005068
 6478 Fit       0.004114
 6479 Fit       0.002938
 6480 Fit       0.001560
 6481 Fit      -0.000005
 6482 Fit      -0.001690
 6483 Fit      -0.003305
 6484 Fit      -0.004467
 6485 Fit      -0.004669
 6486 Fit       0.000551
 6487 Fit       0.005650
 6488 Fit       0.007609
 6489 Fit       0.008061
 6490 Fit       0.007640
 6491 Fit       0.006785
 6492 Fit       0.005717
 6493 Fit       0.004512
 6494 Fit       0.003171
 6495 Fit       0.001653
 6496 Fit      -0.000090
 6497 Fit      -0.002090
 6498 Fit      -0.004317
 6499 Fit      -0.006582
 6500 Fit       0.011314
 6501 Fit       0.011202
 6502 Fit       0.010218
 6503 Fit       0.008917
 6504 Fit       0.007544
 6505 Fit       0.006169
 6506 Fit       0.004775
 6507 Fit       0.003307
 6508 Fit       0.001688
 6509 Fit      -0.000172
 6510 Fit      -0.002371
 6511 Fit      -0.005006
 6512 Fit      -0.008128
 6513 Fit       0.013436
 6514 Fit       0.011232
 6515 Fit       0.009243
 6516 Fit       0.007461
 6517 Fit       0.005807
 6518 Fit       0.004181
 6519 Fit       0.002469
 6520 Fit       0.000545
 6521 Fit      -0.001739
 6522 Fit      -0.004573
 6523 Fit      -0.008202
 6524 Fit       0.014093
 6525 Fit       0.011263
 6526 Fit       0.008947
 6527 Fit       0.006960
 6528 Fit       0.005138
 6529 Fit       0.003331
 6530 Fit       0.001385
 6531 Fit      -0.000873
 6532 Fit      -0.003667
 6533 Fit      -0.007321
 6534 Fit       0.013160
 6535 Fit       0.010218
 6536 Fit       0.007839
 6537 Fit       0.005766
 6538 Fit       0.003795
 6539 Fit       0.001736
 6540 Fit      -0.000616
 6541 Fit      -0.003529
 6542 Fit      -0.007399
 6543 Fit       0.005493
 6544 Fit       0.003276
 6545 Fit       0.000910
 6546 Fit      -0.001900
 6547 Fit       0.005490
 6548 Fit       0.003273
 6549 Fit       0.000905
 6550 Fit      -0.001906
 6551 Fit       0.013163
 6552 Fit       0.010219
 6553 Fit       0.007838
 6554 Fit       0.005764
 6555 Fit       0.003792
 6556 Fit       0.001733
 6557 Fit      -0.000620
 6558 Fit      -0.003533
 6559 Fit      -0.007403
 6560 Fit       0.014098
 6561 Fit       0.011265
 6562 Fit       0.008947
 6563 Fit       0.006959
 6564 Fit       0.005136
 6565 Fit       0.003328
 6566 Fit       0.001382
 6567 Fit      -0.000875
 6568 Fit      -0.003668
 6569 Fit      -0.007321
 6570 Fit       0.013441
 6571 Fit       0.011235
 6572 Fit       0.009244
 6573 Fit       0.007460
 6574 Fit       0.005806
 6575 Fit       0.004179
 6576 Fit       0.002467
 6577 Fit       0.000544
 6578 Fit      -0.001739
 6579 Fit      -0.004571
 6580 Fit      -0.008197
 6581 Fit       0.011319
 6582 Fit       0.011206
 6583 Fit       0.010220
 6584 Fit       0.008918
 6585 Fit       0.007544
 6586 Fit       0.006168
 6587 Fit       0.004774
 6588 Fit       0.003306
 6589 Fit       0.001688
 6590 Fit      -0.000171
 6591 Fit      -0.002369
 6592 Fit      -0.005000
 6593 Fit      -0.008117
 6594 Fit       0.005649
 6595 Fit       0.007609
 6596 Fit       0.008061
 6597 Fit       0.007640
 6598 Fit       0.006785
 6599 Fit       0.005716
 6600 Fit       0.004511
 6601 Fit       0.003170
 6602 Fit       0.001653
 6603 Fit      -0.000089
 6604 Fit      -0.002087
 6605 Fit      -0.004310
 6606 Fit      -0.006571
 6607 Fit       0.003556
 6608 Fit       0.005317
 6609 Fit       0.005917
 6610 Fit       0.005728
 6611 Fit       0.005067
 6612 Fit       0.004113
 6613 Fit       0.002937
 6614 Fit       0.001560
 6615 Fit      -0.000004
 6616 Fit      -0.001686
 6617 Fit      -0.003299
 6618 Fit      -0.004459
 6619 Fit      -0.004663
 6620 Fit       0.000546
 6621 Fit       0.002440
 6622 Fit       0.003886
 6623 Fit       0.004370
 6624 Fit       0.004115
 6625 Fit       0.003368
 6626 Fit       0.002287
 6627 Fit       0.000982
 6628 Fit      -0.000399
 6629 Fit      -0.001591
 6630 Fit      -0.002218
 6631 Fit      -0.002048
 6632 Fit      -0.001405
 6633 Fit      -0.001069
 6634 Fit      -0.001573
 6635 Fit      -0.002582
 6636 Fit      -0.003014
 6637 Fit      -0.002000
 6638 Fit       0.000190
 6639 Fit       0.001809
 6640 Fit       0.002914
 6641 Fit       0.003023
 6642 Fit       0.002344
 6643 Fit       0.001221
 6644 Fit       0.000053
 6645 Fit      -0.000677
 6646 Fit      -0.000766
 6647 Fit      -0.000716
 6648 Fit      -0.000993
 6649 Fit      -0.000986
 6650 Fit       0.000124
 6651 Fit       0.001368
 6652 Fit       0.001944
 6653 Fit       0.001216
 6654 Fit       0.000291
 6655 Fit      -0.000003
 6656 Fit       0.000232
 6657 Fit       0.000916
 6658 Fit      -0.007240
 6659 Fit      -0.007135
 6660 Fit      -0.004590
 6661 Fit      -0.009168
 6662 Fit      -0.009703
 6663 Fit      -0.006244
 6664 Fit      -0.003116
 6665 Fit      -0.001275
 6666 Fit      -0.010344
 6667 Fit      -0.012121
 6668 Fit      -0.011885
 6669 Fit      -0.009620
 6670 Fit      -0.004621
 6671 Fit      -0.001163
 6672 Fit       0.001347
 6673 Fit       0.002624
 6674 Fit      -0.013265
 6675 Fit      -0.014346
 6676 Fit      -0.013754
 6677 Fit      -0.011620
 6678 Fit      -0.008362
 6679 Fit      -0.002372
 6680 Fit       0.001383
 6681 Fit       0.004369
 6682 Fit       0.006249
 6683 Fit       0.006998
 6684 Fit      -0.013630
 6685 Fit      -0.015571
 6686 Fit      -0.016121
 6687 Fit      -0.015298
 6688 Fit      -0.013233
 6689 Fit      -0.010153
 6690 Fit      -0.006389
 6691 Fit       0.000340
 6692 Fit      -0.015439
 6693 Fit      -0.017155
 6694 Fit      -0.017574
 6695 Fit      -0.016771
 6696 Fit      -0.014847
 6697 Fit      -0.011949
 6698 Fit      -0.008268
 6699 Fit      -0.004059
 6700 Fit      -0.016421
 6701 Fit      -0.018212
 6702 Fit      -0.018766
 6703 Fit      -0.018166
 6704 Fit      -0.016497
 6705 Fit      -0.013861
 6706 Fit      -0.010379
 6707 Fit      -0.006208
 6708 Fit      -0.001554
 6709 Fit      -0.017270
 6710 Fit      -0.019032
 6711 Fit      -0.019667
 6712 Fit      -0.019247
 6713 Fit      -0.017839
 6714 Fit      -0.015515
 6715 Fit      -0.012357
 6716 Fit      -0.008459
 6717 Fit      -0.003942
 6718 Fit      -0.017326
 6719 Fit      -0.019312
 6720 Fit      -0.020240
 6721 Fit      -0.020167
 6722 Fit      -0.019146
 6723 Fit      -0.017232
 6724 Fit      -0.014488
 6725 Fit      -0.010978
 6726 Fit      -0.006775
 6727 Fit      -0.001974
 6728 Fit      -0.018334
 6729 Fit      -0.020051
 6730 Fit      -0.020737
 6731 Fit      -0.020433
 6732 Fit      -0.019186
 6733 Fit      -0.017049
 6734 Fit      -0.014078
 6735 Fit      -0.010330
 6736 Fit      -0.005869
 6737 Fit      -0.000773
 6738 Fit      -0.016635
 6739 Fit      -0.019080
 6740 Fit      -0.020517
 6741 Fit      -0.020962
 6742 Fit      -0.020450
 6743 Fit      -0.019025
 6744 Fit      -0.016736
 6745 Fit      -0.013635
 6746 Fit      -0.009771
 6747 Fit      -0.005201
 6748 Fit      -0.016635
 6749 Fit      -0.019081
 6750 Fit      -0.020517
 6751 Fit      -0.020963
 6752 Fit      -0.020450
 6753 Fit      -0.019025
 6754 Fit      -0.016736
 6755 Fit      -0.013634
 6756 Fit      -0.009771
 6757 Fit      -0.005200
 6758 Fit      -0.018335
 6759 Fit      -0.020052
 6760 Fit      -0.020737
 6761 Fit      -0.020433
 6762 Fit      -0.019185
 6763 Fit      -0.017048
 6764 Fit      -0.014076
 6765 Fit      -0.010328
 6766 Fit      -0.005866
 6767 Fit      -0.000769
 6768 Fit      -0.017329
 6769 Fit      -0.019314
 6770 Fit      -0.020241
 6771 Fit      -0.020167
 6772 Fit      -0.019145
 6773 Fit      -0.017231
 6774 Fit      -0.014485
 6775 Fit      -0.010974
 6776 Fit      -0.006771
 6777 Fit      -0.001968
 6778 Fit      -0.017274
 6779 Fit      -0.019035
 6780 Fit      -0.019669
 6781 Fit      -0.019247
 6782 Fit      -0.017838
 6783 Fit      -0.015512
 6784 Fit      -0.012352
 6785 Fit      -0.008454
 6786 Fit      -0.003935
 6787 Fit      -0.016427
 6788 Fit      -0.018215
 6789 Fit      -0.018767
 6790 Fit      -0.018166
 6791 Fit      -0.016495
 6792 Fit      -0.013857
 6793 Fit      -0.010373
 6794 Fit      -0.006200
 6795 Fit      -0.001545
 6796 Fit       0.000350
 6797 Fit      -0.015447
 6798 Fit      -0.017159
 6799 Fit      -0.017576
 6800 Fit      -0.016770
 6801 Fit      -0.014845
 6802 Fit      -0.011944
 6803 Fit      -0.008261
 6804 Fit      -0.004051
 6805 Fit      -0.002363
 6806 Fit       0.001393
 6807 Fit       0.004380
 6808 Fit       0.006259
 6809 Fit       0.007006
 6810 Fit      -0.013640
 6811 Fit      -0.015577
 6812 Fit      -0.016123
 6813 Fit      -0.015298
 6814 Fit      -0.013230
 6815 Fit      -0.010148
 6816 Fit      -0.006382
 6817 Fit      -0.004614
 6818 Fit      -0.001155
 6819 Fit       0.001354
 6820 Fit       0.002630
 6821 Fit      -0.013273
 6822 Fit      -0.014350
 6823 Fit      -0.013755
 6824 Fit      -0.011618
 6825 Fit      -0.008357
 6826 Fit      -0.006240
 6827 Fit      -0.003111
 6828 Fit      -0.001271
 6829 Fit      -0.010353
 6830 Fit      -0.012126
 6831 Fit      -0.011886
 6832 Fit      -0.009618
 6833 Fit      -0.007134
 6834 Fit      -0.004589
 6835 Fit      -0.009174
 6836 Fit      -0.009704
 6837 Fit      -0.007242
 6838 Fit       0.003657
 6839 Fit       0.006898
 6840 Fit       0.008186
 6841 Fit       0.006185
 6842 Fit       0.009227
 6843 Fit       0.011087
 6844 Fit       0.011856
 6845 Fit       0.011648
 6846 Fit       0.001900
 6847 Fit       0.008422
 6848 Fit       0.011280
 6849 Fit       0.013252
 6850 Fit       0.014410
 6851 Fit       0.014832
 6852 Fit       0.014605
 6853 Fit       0.004596
 6854 Fit       0.010298
 6855 Fit       0.013015
 6856 Fit       0.014995
 6857 Fit       0.016302
 6858 Fit       0.016996
 6859 Fit       0.017131
 6860 Fit       0.016778
 6861 Fit       0.002334
 6862 Fit       0.006768
 6863 Fit       0.011778
 6864 Fit       0.014320
 6865 Fit       0.016250
 6866 Fit       0.017620
 6867 Fit       0.018476
 6868 Fit       0.018856
 6869 Fit       0.018802
 6870 Fit       0.018355
 6871 Fit       0.004581
 6872 Fit       0.008558
 6873 Fit       0.012843
 6874 Fit       0.015330
 6875 Fit       0.017245
 6876 Fit       0.018638
 6877 Fit       0.019551
 6878 Fit       0.020019
 6879 Fit       0.020072
 6880 Fit       0.019740
 6881 Fit       0.019047
 6882 Fit       0.001254
 6883 Fit       0.005894
 6884 Fit       0.009724
 6885 Fit       0.013485
 6886 Fit       0.015887
 6887 Fit       0.017765
 6888 Fit       0.019163
 6889 Fit       0.020117
 6890 Fit       0.020660
 6891 Fit       0.020816
 6892 Fit       0.020608
 6893 Fit       0.020048
 6894 Fit       0.002495
 6895 Fit       0.006870
 6896 Fit       0.010503
 6897 Fit       0.013700
 6898 Fit       0.016056
 6899 Fit       0.017910
 6900 Fit       0.019305
 6901 Fit       0.020276
 6902 Fit       0.020851
 6903 Fit       0.021055
 6904 Fit       0.020907
 6905 Fit       0.020418
 6906 Fit       0.003026
 6907 Fit       0.007261
 6908 Fit       0.010790
 6909 Fit       0.013487
 6910 Fit       0.015889
 6911 Fit       0.017766
 6912 Fit       0.019163
 6913 Fit       0.020118
 6914 Fit       0.020660
 6915 Fit       0.020817
 6916 Fit       0.020608
 6917 Fit       0.020049
 6918 Fit       0.002497
 6919 Fit       0.006871
 6920 Fit       0.010504
 6921 Fit       0.012846
 6922 Fit       0.015332
 6923 Fit       0.017247
 6924 Fit       0.018640
 6925 Fit       0.019553
 6926 Fit       0.020020
 6927 Fit       0.020073
 6928 Fit       0.019740
 6929 Fit       0.019047
 6930 Fit       0.001258
 6931 Fit       0.005898
 6932 Fit       0.009727
 6933 Fit       0.011782
 6934 Fit       0.014324
 6935 Fit       0.016253
 6936 Fit       0.017623
 6937 Fit       0.018478
 6938 Fit       0.018858
 6939 Fit       0.018803
 6940 Fit       0.018356
 6941 Fit       0.004586
 6942 Fit       0.008563
 6943 Fit       0.010303
 6944 Fit       0.013019
 6945 Fit       0.014999
 6946 Fit       0.016306
 6947 Fit       0.016998
 6948 Fit       0.017134
 6949 Fit       0.016779
 6950 Fit       0.002341
 6951 Fit       0.006774
 6952 Fit       0.008428
 6953 Fit       0.011286
 6954 Fit       0.013256
 6955 Fit       0.014414
 6956 Fit       0.014836
 6957 Fit       0.014608
 6958 Fit       0.004604
 6959 Fit       0.006193
 6960 Fit       0.009234
 6961 Fit       0.011093
 6962 Fit       0.011860
 6963 Fit       0.011651
 6964 Fit       0.001909
 6965 Fit       0.003665
 6966 Fit       0.006904
 6967 Fit       0.008192
 -----------------------------------------------------------------
 Leave Link  602 at Mon Jan 14 11:32:37 2019, MaxMem=   33554432 cpu:       0.8

 Test job not archived.
 1\1\GINC-N0708\FOpt\RHF\6-31G(d)\C6H14O4\ROOT\14-Jan-2019\0\\#HF/6-31G
 * SCF=tight Test Pop=MK iop(6/33=2) NoSymm iop(6/42=6) opt\\remark lin
 e goes here\\0,1\H,-6.0202269783,-0.3917190684,-0.0007257098\O,-5.2765
 592451,0.1933125837,-0.0021322315\C,-4.0876668861,-0.5507531639,0.0002
 693528\H,-4.0150924083,-1.1825794666,0.8814225343\H,-4.014698704,-1.18
 76395367,-0.8772012426\C,-2.9424434274,0.439104875,-0.0023302053\H,-3.
 00948365,1.0785293276,0.8749516778\H,-3.0091449763,1.0735241521,-0.883
 2620812\O,-1.7513311415,-0.2879935097,-0.0000395309\C,-0.5922227678,0.
 4885027886,-0.0018658396\H,-0.5531181032,1.1260983762,-0.8821737315\H,
 -0.5527009207,1.1296323571,0.8758540722\C,0.5927019418,-0.4544755851,-
 0.0002117639\H,0.5535156643,-1.0952607212,-0.878196723\H,0.5532685146,
 -1.0924168725,0.8798316651\O,1.7518106798,0.322021783,-0.0013124839\C,
 2.9429222037,-0.4050862943,-0.0012692261\H,3.0100266555,-1.0415511908,
 0.8781545445\H,3.009523224,-1.0424665612,-0.8800665512\C,4.0881819554,
 0.5847458042,-0.0021228779\H,4.0158431001,1.219446804,0.8769760023\H,4
 .0150895354,1.2187613455,-0.88165398\O,5.2770693053,-0.1593746186,-0.0
 023430855\H,6.0207364287,0.4256363919,-0.0025525852\\Version=EM64L-G09
 RevA.02\HF=-534.7528586\RMSD=7.370e-09\RMSF=5.209e-06\Dipole=-0.000019
 ,0.0000177,0.0007717\Quadrupole=5.4021293,-2.6805525,-2.7215768,11.316
 9415,-0.0148703,-0.0004956\PG=C01 [X(C6H14O4)]\\@


 What some people mistake for the high cost
 of living is really the cost of living high.
                              -- Doug Larson
 Job cpu time:  0 days  0 hours  3 minutes 48.7 seconds.
 File lengths (MBytes):  RWF=     26 Int=      0 D2E=      0 Chk=      6 Scr=      1
 Normal termination of Gaussian 09 at Mon Jan 14 11:32:37 2019.
