 Entering Gaussian System, Link 0=g09
 Input=PEG.com
 Output=PEG.log
 Initial command:
 /gscratch/pfaendtner/codes/G09/g09/l1.exe /gscratch/pfaendtner/josh/gaussian/Gau-21683.inp -scrdir=/gscratch/pfaendtner/josh/gaussian/
 Entering Link 1 = /gscratch/pfaendtner/codes/G09/g09/l1.exe PID=     21693.
  
 Copyright (c) 1988,1990,1992,1993,1995,1998,2003,2009, Gaussian, Inc.
                  All Rights Reserved.
  
 This is part of the Gaussian(R) 09 program.  It is based on
 the Gaussian(R) 03 system (copyright 2003, Gaussian, Inc.),
 the Gaussian(R) 98 system (copyright 1998, Gaussian, Inc.),
 the Gaussian(R) 94 system (copyright 1995, Gaussian, Inc.),
 the Gaussian 92(TM) system (copyright 1992, Gaussian, Inc.),
 the Gaussian 90(TM) system (copyright 1990, Gaussian, Inc.),
 the Gaussian 88(TM) system (copyright 1988, Gaussian, Inc.),
 the Gaussian 86(TM) system (copyright 1986, Carnegie Mellon
 University), and the Gaussian 82(TM) system (copyright 1983,
 Carnegie Mellon University). Gaussian is a federally registered
 trademark of Gaussian, Inc.
  
 This software contains proprietary and confidential information,
 including trade secrets, belonging to Gaussian, Inc.
  
 This software is provided under written license and may be
 used, copied, transmitted, or stored only in accord with that
 written license.
  
 The following legend is applicable only to US Government
 contracts under FAR:
  
                    RESTRICTED RIGHTS LEGEND
  
 Use, reproduction and disclosure by the US Government is
 subject to restrictions as set forth in subparagraphs (a)
 and (c) of the Commercial Computer Software - Restricted
 Rights clause in FAR 52.227-19.
  
 Gaussian, Inc.
 340 Quinnipiac St., Bldg. 40, Wallingford CT 06492
  
  
 ---------------------------------------------------------------
 Warning -- This program may not be used in any manner that
 competes with the business of Gaussian, Inc. or will provide
 assistance to any competitor of Gaussian, Inc.  The licensee
 of this program is prohibited from giving any competitor of
 Gaussian, Inc. access to this program.  By using this program,
 the user acknowledges that Gaussian, Inc. is engaged in the
 business of creating and licensing software in the field of
 computational chemistry and represents and warrants to the
 licensee that it is not a competitor of Gaussian, Inc. and that
 it will not use this program in any manner prohibited above.
 ---------------------------------------------------------------
  

 Cite this work as:
 Gaussian 09, Revision A.02,
 M. J. Frisch, G. W. Trucks, H. B. Schlegel, G. E. Scuseria, 
 M. A. Robb, J. R. Cheeseman, G. Scalmani, V. Barone, B. Mennucci, 
 G. A. Petersson, H. Nakatsuji, M. Caricato, X. Li, H. P. Hratchian, 
 A. F. Izmaylov, J. Bloino, G. Zheng, J. L. Sonnenberg, M. Hada, 
 M. Ehara, K. Toyota, R. Fukuda, J. Hasegawa, M. Ishida, T. Nakajima, 
 Y. Honda, O. Kitao, H. Nakai, T. Vreven, J. A. Montgomery, Jr., 
 J. E. Peralta, F. Ogliaro, M. Bearpark, J. J. Heyd, E. Brothers, 
 K. N. Kudin, V. N. Staroverov, R. Kobayashi, J. Normand, 
 K. Raghavachari, A. Rendell, J. C. Burant, S. S. Iyengar, J. Tomasi, 
 M. Cossi, N. Rega, J. M. Millam, M. Klene, J. E. Knox, J. B. Cross, 
 V. Bakken, C. Adamo, J. Jaramillo, R. Gomperts, R. E. Stratmann, 
 O. Yazyev, A. J. Austin, R. Cammi, C. Pomelli, J. W. Ochterski, 
 R. L. Martin, K. Morokuma, V. G. Zakrzewski, G. A. Voth, 
 P. Salvador, J. J. Dannenberg, S. Dapprich, A. D. Daniels, 
 O. Farkas, J. B. Foresman, J. V. Ortiz, J. Cioslowski, 
 and D. J. Fox, Gaussian, Inc., Wallingford CT, 2009.
 
 ******************************************
 Gaussian 09:  EM64L-G09RevA.02 11-Jun-2009
                 1-May-2017 
 ******************************************
 %chk=molecule
 -------------------------------------------------------------------
 #HF/6-31G* SCF=tight Test Pop=MK iop(6/33=2) NoSymm iop(6/42=6) opt
 -------------------------------------------------------------------
 1/18=20,19=15,38=1/1,3;
 2/9=110,12=2,15=1,17=6,18=5,40=1/2;
 3/5=1,6=6,7=1,11=9,16=1,25=1,30=1,71=1/1,2,3;
 4//1;
 5/5=2,32=2,38=5/2;
 6/7=2,8=2,9=2,10=2,15=8,20=1,28=1,33=2,42=6/1,2;
 7/30=1/1,2,3,16;
 1/18=20,19=15/3(2);
 2/9=110,15=1/2;
 99//99;
 2/9=110,15=1/2;
 3/5=1,6=6,7=1,11=9,16=1,25=1,30=1,71=1/1,2,3;
 4/5=5,16=3/1;
 5/5=2,32=2,38=5/2;
 7/30=1/1,2,3,16;
 1/18=20,19=15/3(-5);
 2/9=110,15=1/2;
 6/7=2,8=2,9=2,10=2,15=8,19=2,20=1,28=1,33=2,42=6/1,2;
 99/9=1/99;
 ---------------------
 remark line goes here
 ---------------------
 Symbolic Z-matrix:
 Charge =  0 Multiplicity = 1
 C                    -3.87188   1.00907   0. 
 H                    -3.51523   0.00026   0. 
 H                    -3.51521   1.51347  -0.87365 
 H                    -4.94188   1.00908   0. 
 O                    -3.39521   1.68317   1.16759 
 C                    -3.87152   3.03152   1.16821 
 H                    -4.94151   3.0318    1.16641 
 H                    -3.51325   3.53675   0.29569 
 C                    -3.36011   3.75601   2.42724 
 H                    -2.29011   3.75564   2.4291 
 H                    -3.71847   3.25085   3.29976 
 O                    -3.8363    5.1044    2.42779 
 C                    -3.36154   5.77782   3.59655 
 H                    -2.29154   5.77776   3.59833 
 H                    -3.71969   5.27295   4.46933 
 C                    -3.87479   7.22978   3.59651 
 H                    -3.51628   7.73476   2.72395 
 H                    -4.94479   7.22994   3.59435 
 O                    -3.40039   7.90297   4.76556 
 H                    -3.71994   8.80822   4.76593 
 

 GradGradGradGradGradGradGradGradGradGradGradGradGradGradGradGradGradGrad
 Berny optimization.
 Initialization pass.
                           ----------------------------
                           !    Initial Parameters    !
                           ! (Angstroms and Degrees)  !
 --------------------------                            --------------------------
 ! Name  Definition              Value          Derivative Info.                !
 --------------------------------------------------------------------------------
 ! R1    R(1,2)                  1.07           estimate D2E/DX2                !
 ! R2    R(1,3)                  1.07           estimate D2E/DX2                !
 ! R3    R(1,4)                  1.07           estimate D2E/DX2                !
 ! R4    R(1,5)                  1.43           estimate D2E/DX2                !
 ! R5    R(5,6)                  1.43           estimate D2E/DX2                !
 ! R6    R(6,7)                  1.07           estimate D2E/DX2                !
 ! R7    R(6,8)                  1.07           estimate D2E/DX2                !
 ! R8    R(6,9)                  1.54           estimate D2E/DX2                !
 ! R9    R(9,10)                 1.07           estimate D2E/DX2                !
 ! R10   R(9,11)                 1.07           estimate D2E/DX2                !
 ! R11   R(9,12)                 1.43           estimate D2E/DX2                !
 ! R12   R(12,13)                1.43           estimate D2E/DX2                !
 ! R13   R(13,14)                1.07           estimate D2E/DX2                !
 ! R14   R(13,15)                1.07           estimate D2E/DX2                !
 ! R15   R(13,16)                1.54           estimate D2E/DX2                !
 ! R16   R(16,17)                1.07           estimate D2E/DX2                !
 ! R17   R(16,18)                1.07           estimate D2E/DX2                !
 ! R18   R(16,19)                1.43           estimate D2E/DX2                !
 ! R19   R(19,20)                0.96           estimate D2E/DX2                !
 ! A1    A(2,1,3)              109.4712         estimate D2E/DX2                !
 ! A2    A(2,1,4)              109.4712         estimate D2E/DX2                !
 ! A3    A(2,1,5)              109.4712         estimate D2E/DX2                !
 ! A4    A(3,1,4)              109.4712         estimate D2E/DX2                !
 ! A5    A(3,1,5)              109.4713         estimate D2E/DX2                !
 ! A6    A(4,1,5)              109.4712         estimate D2E/DX2                !
 ! A7    A(1,5,6)              109.5            estimate D2E/DX2                !
 ! A8    A(5,6,7)              109.4712         estimate D2E/DX2                !
 ! A9    A(5,6,8)              109.4712         estimate D2E/DX2                !
 ! A10   A(5,6,9)              109.4712         estimate D2E/DX2                !
 ! A11   A(7,6,8)              109.4712         estimate D2E/DX2                !
 ! A12   A(7,6,9)              109.4713         estimate D2E/DX2                !
 ! A13   A(8,6,9)              109.4712         estimate D2E/DX2                !
 ! A14   A(6,9,10)             109.4712         estimate D2E/DX2                !
 ! A15   A(6,9,11)             109.4712         estimate D2E/DX2                !
 ! A16   A(6,9,12)             109.4712         estimate D2E/DX2                !
 ! A17   A(10,9,11)            109.4712         estimate D2E/DX2                !
 ! A18   A(10,9,12)            109.4713         estimate D2E/DX2                !
 ! A19   A(11,9,12)            109.4712         estimate D2E/DX2                !
 ! A20   A(9,12,13)            109.5            estimate D2E/DX2                !
 ! A21   A(12,13,14)           109.4712         estimate D2E/DX2                !
 ! A22   A(12,13,15)           109.4712         estimate D2E/DX2                !
 ! A23   A(12,13,16)           109.4712         estimate D2E/DX2                !
 ! A24   A(14,13,15)           109.4712         estimate D2E/DX2                !
 ! A25   A(14,13,16)           109.4713         estimate D2E/DX2                !
 ! A26   A(15,13,16)           109.4712         estimate D2E/DX2                !
 ! A27   A(13,16,17)           109.4704         estimate D2E/DX2                !
 ! A28   A(13,16,18)           109.4765         estimate D2E/DX2                !
 ! A29   A(13,16,19)           109.4668         estimate D2E/DX2                !
 ! A30   A(17,16,18)           109.4713         estimate D2E/DX2                !
 ! A31   A(17,16,19)           109.4712         estimate D2E/DX2                !
 ! A32   A(18,16,19)           109.4712         estimate D2E/DX2                !
 ! A33   A(16,19,20)           109.5            estimate D2E/DX2                !
 ! D1    D(2,1,5,6)            179.9999         estimate D2E/DX2                !
 ! D2    D(3,1,5,6)             59.9999         estimate D2E/DX2                !
 ! D3    D(4,1,5,6)            -60.0001         estimate D2E/DX2                !
 ! D4    D(1,5,6,7)             59.8889         estimate D2E/DX2                !
 ! D5    D(1,5,6,8)            -60.1111         estimate D2E/DX2                !
 ! D6    D(1,5,6,9)            179.889          estimate D2E/DX2                !
 ! D7    D(5,6,9,10)            59.9939         estimate D2E/DX2                !
 ! D8    D(5,6,9,11)           -60.0061         estimate D2E/DX2                !
 ! D9    D(5,6,9,12)           179.9939         estimate D2E/DX2                !
 ! D10   D(7,6,9,10)           179.9939         estimate D2E/DX2                !
 ! D11   D(7,6,9,11)            59.9939         estimate D2E/DX2                !
 ! D12   D(7,6,9,12)           -60.0061         estimate D2E/DX2                !
 ! D13   D(8,6,9,10)           -60.0061         estimate D2E/DX2                !
 ! D14   D(8,6,9,11)           179.9939         estimate D2E/DX2                !
 ! D15   D(8,6,9,12)            59.9939         estimate D2E/DX2                !
 ! D16   D(6,9,12,13)         -179.9885         estimate D2E/DX2                !
 ! D17   D(10,9,12,13)         -59.9885         estimate D2E/DX2                !
 ! D18   D(11,9,12,13)          60.0115         estimate D2E/DX2                !
 ! D19   D(9,12,13,14)          60.0032         estimate D2E/DX2                !
 ! D20   D(9,12,13,15)         -59.9968         estimate D2E/DX2                !
 ! D21   D(9,12,13,16)        -179.9968         estimate D2E/DX2                !
 ! D22   D(12,13,16,17)        -60.0245         estimate D2E/DX2                !
 ! D23   D(12,13,16,18)         59.9782         estimate D2E/DX2                !
 ! D24   D(12,13,16,19)        179.9787         estimate D2E/DX2                !
 ! D25   D(14,13,16,17)         59.9754         estimate D2E/DX2                !
 ! D26   D(14,13,16,18)        179.9782         estimate D2E/DX2                !
 ! D27   D(14,13,16,19)        -60.0213         estimate D2E/DX2                !
 ! D28   D(15,13,16,17)        179.9755         estimate D2E/DX2                !
 ! D29   D(15,13,16,18)        -60.0218         estimate D2E/DX2                !
 ! D30   D(15,13,16,19)         59.9787         estimate D2E/DX2                !
 ! D31   D(13,16,19,20)        179.9893         estimate D2E/DX2                !
 ! D32   D(17,16,19,20)         59.993          estimate D2E/DX2                !
 ! D33   D(18,16,19,20)        -60.007          estimate D2E/DX2                !
 --------------------------------------------------------------------------------
 Trust Radius=3.00D-01 FncErr=1.00D-07 GrdErr=1.00D-07
 Number of steps in this run=  95 maximum allowed number of steps= 120.
 GradGradGradGradGradGradGradGradGradGradGradGradGradGradGradGradGradGrad

                          Input orientation:                          
 ---------------------------------------------------------------------
 Center     Atomic      Atomic             Coordinates (Angstroms)
 Number     Number       Type             X           Y           Z
 ---------------------------------------------------------------------
      1          6           0       -3.871882    1.009070    0.000000
      2          1           0       -3.515227    0.000260    0.000000
      3          1           0       -3.515209    1.513468   -0.873652
      4          1           0       -4.941882    1.009083    0.000000
      5          8           0       -3.395207    1.683173    1.167590
      6          6           0       -3.871516    3.031516    1.168211
      7          1           0       -4.941515    3.031800    1.166410
      8          1           0       -3.513246    3.536745    0.295695
      9          6           0       -3.360108    3.756014    2.427244
     10          1           0       -2.290110    3.755636    2.429098
     11          1           0       -3.718466    3.250846    3.299761
     12          8           0       -3.836300    5.104399    2.427794
     13          6           0       -3.361538    5.777824    3.596554
     14          1           0       -2.291540    5.777764    3.598333
     15          1           0       -3.719685    5.272951    4.469327
     16          6           0       -3.874791    7.229779    3.596515
     17          1           0       -3.516284    7.734764    2.723954
     18          1           0       -4.944789    7.229938    3.594352
     19          8           0       -3.400387    7.902967    4.765556
     20          1           0       -3.719936    8.808223    4.765931
 ---------------------------------------------------------------------
                    Distance matrix (angstroms):
                    1          2          3          4          5
     1  C    0.000000
     2  H    1.070000   0.000000
     3  H    1.070000   1.747302   0.000000
     4  H    1.070000   1.747303   1.747303   0.000000
     5  O    1.430000   2.051796   2.051796   2.051796   0.000000
     6  C    2.335595   3.268053   2.569168   2.569170   1.430000
     7  H    2.568280   3.547540   2.915738   2.334930   2.051796
     8  H    2.570058   3.548826   2.336883   2.918478   2.051796
     9  C    3.701233   4.474513   3.993617   3.992387   2.425826
    10  H    3.993262   4.637270   4.175684   4.525037   2.666036
    11  H    3.992182   4.636382   4.525170   4.172610   2.666130
    12  O    4.761004   5.661228   4.888499   4.887545   3.672528
    13  C    5.994720   6.807280   6.179893   6.178477   4.761005
    14  H    6.179475   6.915559   6.299224   6.535489   4.887972
    15  H    6.178894   6.915053   6.536279   6.296763   4.888074
    16  C    7.185551   8.082707   7.265528   7.264341   6.074086
    17  H    7.265076   8.200150   7.186604   7.395068   6.249694
    18  H    7.264275   8.199466   7.394915   7.184595   6.249558
    19  O    8.393965   9.229111   8.522884   8.521289   7.185488
    20  H    9.141333  10.016797   9.222811   9.221379   7.988733
                    6          7          8          9         10
     6  C    0.000000
     7  H    1.070000   0.000000
     8  H    1.070000   1.747303   0.000000
     9  C    1.540000   2.148263   2.148263   0.000000
    10  H    2.148263   3.024610   2.468884   1.070000   0.000000
    11  H    2.148263   2.468808   3.024610   1.070000   1.747303
    12  O    2.425826   2.666130   2.666036   1.430000   2.051796
    13  C    3.701234   3.992815   3.992633   2.335595   2.569077
    14  H    3.992955   4.525144   4.173984   2.569194   2.335832
    15  H    3.993051   4.174313   4.525068   2.569143   2.916928
    16  C    4.849957   4.966521   4.966349   3.701234   3.992962
    17  H    4.966595   5.155103   4.849722   3.992853   4.174195
    18  H    4.966369   4.849667   5.154622   3.992681   4.525032
    19  O    6.074035   6.249576   6.249504   4.760940   4.887956
    20  H    6.807122   6.914902   6.914782   5.578866   5.747506
                   11         12         13         14         15
    11  H    0.000000
    12  O    2.051796   0.000000
    13  C    2.569261   1.430000   0.000000
    14  H    2.917289   2.051796   1.070000   0.000000
    15  H    2.335978   2.051796   1.070000   1.747303   0.000000
    16  C    3.993044   2.425826   1.540000   2.148263   2.148263
    17  H    4.525256   2.666260   2.148252   2.468681   3.024603
    18  H    4.174185   2.665994   2.148329   3.024658   2.469060
    19  O    4.887940   3.672484   2.425760   2.666166   2.665837
    20  H    5.747529   4.381637   3.267906   3.547856   3.547692
                   16         17         18         19         20
    16  C    0.000000
    17  H    1.070000   0.000000
    18  H    1.070000   1.747303   0.000000
    19  O    1.430000   2.051796   2.051796   0.000000
    20  H    1.970533   2.315915   2.315998   0.960000   0.000000
 Symmetry turned off by external request.
 Stoichiometry    C5H12O3
 Framework group  C1[X(C5H12O3)]
 Deg. of freedom    54
 Full point group                 C1      NOp   1
 Rotational constants (GHZ):     13.7554910      0.5290222      0.5174548
 Standard basis: 6-31G(d) (6D, 7F)
 Integral buffers will be    131072 words long.
 Raffenetti 1 integral format.
 Two-electron integral symmetry is turned off.
   144 basis functions,   272 primitive gaussians,   144 cartesian basis functions
    33 alpha electrons       33 beta electrons
       nuclear repulsion energy       385.5559950683 Hartrees.
 NAtoms=   20 NActive=   20 NUniq=   20 SFac= 7.50D-01 NAtFMM=   80 NAOKFM=F Big=F
 One-electron integrals computed using PRISM.
 NBasis=   144 RedAO= T  NBF=   144
 NBsUse=   144 1.00D-06 NBFU=   144
 Harris functional with IExCor=  205 diagonalized for initial guess.
 ExpMin= 1.61D-01 ExpMax= 5.48D+03 ExpMxC= 8.25D+02 IAcc=1 IRadAn=         1 AccDes= 0.00D+00
 HarFok:  IExCor=  205 AccDes= 0.00D+00 IRadAn=         1 IDoV= 1
 ScaDFX=  1.000000  1.000000  1.000000  1.000000
 FoFCou: FMM=F IPFlag=           0 FMFlag=      100000 FMFlg1=           0
         NFxFlg=           0 DoJE=T BraDBF=F KetDBF=T FulRan=T
         Omega=  0.000000  0.000000  1.000000  0.000000  0.000000 ICntrl=     500 IOpCl=  0
         NMat0=    1 NMatS0=    1 NMatT0=    0 NMatD0=    1 NMtDS0=    0 NMtDT0=    0
         I1Cent=           4 NGrid=           0.
 Symmetry not used in FoFCou.
 Requested convergence on RMS density matrix=1.00D-08 within 128 cycles.
 Requested convergence on MAX density matrix=1.00D-06.
 Requested convergence on             energy=1.00D-06.
 No special actions if energy rises.
 Integral accuracy reduced to 1.0D-05 until final iterations.
 Initial convergence to 1.0D-05 achieved.  Increase integral accuracy.
 SCF Done:  E(RHF) =  -420.856686685     A.U. after   12 cycles
             Convg  =    0.5312D-08             -V/T =  2.0017

 **********************************************************************

            Population analysis using the SCF density.

 **********************************************************************

 Alpha  occ. eigenvalues --  -20.56319 -20.55995 -20.55962 -11.27198 -11.27052
 Alpha  occ. eigenvalues --  -11.27005 -11.26908 -11.26511  -1.37201  -1.36037
 Alpha  occ. eigenvalues --   -1.35076  -1.03252  -0.97903  -0.91291  -0.84121
 Alpha  occ. eigenvalues --   -0.83844  -0.69798  -0.69734  -0.66747  -0.64992
 Alpha  occ. eigenvalues --   -0.64319  -0.62378  -0.60418  -0.58559  -0.57112
 Alpha  occ. eigenvalues --   -0.53110  -0.52374  -0.49597  -0.47259  -0.46908
 Alpha  occ. eigenvalues --   -0.44622  -0.42659  -0.42514
 Alpha virt. eigenvalues --    0.21779   0.23707   0.24062   0.28690   0.29162
 Alpha virt. eigenvalues --    0.29558   0.31065   0.31854   0.32640   0.35029
 Alpha virt. eigenvalues --    0.35123   0.35825   0.37148   0.37780   0.40588
 Alpha virt. eigenvalues --    0.41499   0.43161   0.45026   0.50934   0.69205
 Alpha virt. eigenvalues --    0.74773   0.75841   0.77016   0.78616   0.79383
 Alpha virt. eigenvalues --    0.79709   0.80932   0.83076   0.87190   0.91964
 Alpha virt. eigenvalues --    0.93370   0.99539   1.00808   1.02743   1.02882
 Alpha virt. eigenvalues --    1.07630   1.11643   1.13623   1.14889   1.15888
 Alpha virt. eigenvalues --    1.16618   1.19223   1.19937   1.20514   1.20520
 Alpha virt. eigenvalues --    1.20935   1.23774   1.26445   1.26842   1.29284
 Alpha virt. eigenvalues --    1.30380   1.32670   1.39240   1.42828   1.46555
 Alpha virt. eigenvalues --    1.52681   1.57166   1.65104   1.66665   1.67711
 Alpha virt. eigenvalues --    1.68389   1.72008   1.73609   1.76491   1.79877
 Alpha virt. eigenvalues --    1.82730   1.87867   1.97850   2.03782   2.11756
 Alpha virt. eigenvalues --    2.13536   2.14319   2.15418   2.19901   2.27871
 Alpha virt. eigenvalues --    2.31517   2.35010   2.36880   2.39776   2.41372
 Alpha virt. eigenvalues --    2.43362   2.44663   2.47615   2.48944   2.51909
 Alpha virt. eigenvalues --    2.55308   2.61195   2.62277   2.62889   2.70316
 Alpha virt. eigenvalues --    2.74928   2.75858   2.83400   2.84388   2.86726
 Alpha virt. eigenvalues --    2.93018   3.00857   3.03877   3.05311   3.10112
 Alpha virt. eigenvalues --    3.24336   3.35797   3.40938   4.12910   4.30299
 Alpha virt. eigenvalues --    4.51959   4.64484   4.65542   4.68644   4.85078
 Alpha virt. eigenvalues --    4.91457
          Condensed to atoms (all electrons):
              1          2          3          4          5          6
     1  C    4.818706   0.402306   0.393582   0.393594   0.215812  -0.054782
     2  H    0.402306   0.499675  -0.030193  -0.030186  -0.028506   0.005034
     3  H    0.393582  -0.030193   0.571050  -0.044009  -0.039821  -0.007199
     4  H    0.393594  -0.030186  -0.044009   0.571019  -0.039820  -0.007217
     5  O    0.215812  -0.028506  -0.039821  -0.039820   8.439995   0.204227
     6  C   -0.054782   0.005034  -0.007199  -0.007217   0.204227   4.786543
     7  H   -0.005654  -0.000108  -0.001327   0.007727  -0.039445   0.392176
     8  H   -0.005623  -0.000109   0.007712  -0.001320  -0.039450   0.392183
     9  C    0.004461  -0.000082  -0.000149  -0.000147  -0.037147   0.391615
    10  H   -0.000172   0.000004  -0.000014   0.000018   0.003683  -0.039040
    11  H   -0.000172   0.000004   0.000018  -0.000014   0.003692  -0.039044
    12  O   -0.000042   0.000000   0.000001   0.000001   0.000731  -0.036855
    13  C    0.000002   0.000000   0.000000   0.000000  -0.000036   0.004352
    14  H    0.000000   0.000000   0.000000   0.000000   0.000001  -0.000079
    15  H    0.000000   0.000000   0.000000   0.000000   0.000001  -0.000079
    16  C    0.000000   0.000000   0.000000   0.000000   0.000000  -0.000084
    17  H    0.000000   0.000000   0.000000   0.000000   0.000000   0.000003
    18  H    0.000000   0.000000   0.000000   0.000000   0.000000   0.000003
    19  O    0.000000   0.000000   0.000000   0.000000   0.000000   0.000000
    20  H    0.000000   0.000000   0.000000   0.000000   0.000000   0.000000
              7          8          9         10         11         12
     1  C   -0.005654  -0.005623   0.004461  -0.000172  -0.000172  -0.000042
     2  H   -0.000108  -0.000109  -0.000082   0.000004   0.000004   0.000000
     3  H   -0.001327   0.007712  -0.000149  -0.000014   0.000018   0.000001
     4  H    0.007727  -0.001320  -0.000147   0.000018  -0.000014   0.000001
     5  O   -0.039445  -0.039450  -0.037147   0.003683   0.003692   0.000731
     6  C    0.392176   0.392183   0.391615  -0.039040  -0.039044  -0.036855
     7  H    0.571781  -0.045694  -0.039711   0.005288  -0.006205   0.003696
     8  H   -0.045694   0.571719  -0.039731  -0.006203   0.005288   0.003702
     9  C   -0.039711  -0.039731   4.783963   0.393528   0.393514   0.196104
    10  H    0.005288  -0.006203   0.393528   0.564096  -0.044393  -0.038712
    11  H   -0.006205   0.005288   0.393514  -0.044393   0.564116  -0.038711
    12  O    0.003696   0.003702   0.196104  -0.038712  -0.038711   8.487372
    13  C   -0.000182  -0.000182  -0.048188  -0.006150  -0.006148   0.197247
    14  H    0.000016  -0.000011  -0.006156   0.007253  -0.001318  -0.038557
    15  H   -0.000011   0.000016  -0.006155  -0.001319   0.007252  -0.038554
    16  C    0.000003   0.000003   0.004255  -0.000079  -0.000079  -0.037165
    17  H    0.000000   0.000001  -0.000200  -0.000011   0.000016   0.003802
    18  H    0.000001   0.000000  -0.000200   0.000016  -0.000011   0.003804
    19  O    0.000000   0.000000  -0.000042   0.000001   0.000001   0.000722
    20  H    0.000000   0.000000   0.000003   0.000000   0.000000  -0.000063
             13         14         15         16         17         18
     1  C    0.000002   0.000000   0.000000   0.000000   0.000000   0.000000
     2  H    0.000000   0.000000   0.000000   0.000000   0.000000   0.000000
     3  H    0.000000   0.000000   0.000000   0.000000   0.000000   0.000000
     4  H    0.000000   0.000000   0.000000   0.000000   0.000000   0.000000
     5  O   -0.000036   0.000001   0.000001   0.000000   0.000000   0.000000
     6  C    0.004352  -0.000079  -0.000079  -0.000084   0.000003   0.000003
     7  H   -0.000182   0.000016  -0.000011   0.000003   0.000000   0.000001
     8  H   -0.000182  -0.000011   0.000016   0.000003   0.000001   0.000000
     9  C   -0.048188  -0.006156  -0.006155   0.004255  -0.000200  -0.000200
    10  H   -0.006150   0.007253  -0.001319  -0.000079  -0.000011   0.000016
    11  H   -0.006148  -0.001318   0.007252  -0.000079   0.000016  -0.000011
    12  O    0.197247  -0.038557  -0.038554  -0.037165   0.003802   0.003804
    13  C    4.806600   0.392448   0.392452   0.379391  -0.043455  -0.043455
    14  H    0.392448   0.564111  -0.044508  -0.038859  -0.006254   0.005342
    15  H    0.392452  -0.044508   0.564100  -0.038870   0.005343  -0.006248
    16  C    0.379391  -0.038859  -0.038870   4.754975   0.397810   0.397817
    17  H   -0.043455  -0.006254   0.005343   0.397810   0.569508  -0.043559
    18  H   -0.043455   0.005342  -0.006248   0.397817  -0.043559   0.569475
    19  O   -0.042174   0.003965   0.003966   0.203954  -0.037784  -0.037784
    20  H    0.004892  -0.000205  -0.000205  -0.020103  -0.003180  -0.003178
             19         20
     1  C    0.000000   0.000000
     2  H    0.000000   0.000000
     3  H    0.000000   0.000000
     4  H    0.000000   0.000000
     5  O    0.000000   0.000000
     6  C    0.000000   0.000000
     7  H    0.000000   0.000000
     8  H    0.000000   0.000000
     9  C   -0.000042   0.000003
    10  H    0.000001   0.000000
    11  H    0.000001   0.000000
    12  O    0.000722  -0.000063
    13  C   -0.042174   0.004892
    14  H    0.003965  -0.000205
    15  H    0.003966  -0.000205
    16  C    0.203954  -0.020103
    17  H   -0.037784  -0.003180
    18  H   -0.037784  -0.003178
    19  O    8.406198   0.259788
    20  H    0.259788   0.319488
 Mulliken atomic charges:
              1
     1  C   -0.162017
     2  H    0.182160
     3  H    0.150348
     4  H    0.150355
     5  O   -0.643917
     6  C    0.008244
     7  H    0.157651
     8  H    0.157699
     9  C    0.010463
    10  H    0.162206
    11  H    0.162195
    12  O   -0.668524
    13  C    0.012587
    14  H    0.162812
    15  H    0.162819
    16  C   -0.002971
    17  H    0.157961
    18  H    0.157977
    19  O   -0.760811
    20  H    0.442762
 Sum of Mulliken atomic charges =   0.00000
 Mulliken charges with hydrogens summed into heavy atoms:
              1
     1  C    0.320846
     5  O   -0.643917
     6  C    0.323594
     9  C    0.334864
    12  O   -0.668524
    13  C    0.338218
    16  C    0.312968
    19  O   -0.318048
 Sum of Mulliken charges with hydrogens summed into heavy atoms =   0.00000
 DipInt: DoE/N= T F RetVal/Mat= T F Init=T NMatP=  1 IDeriv=0 Min/MaxMlt=  0  4
 Entering OneElI...
 OneElI was handed    33498768 working-precision words.
 Multipole integrals L=0 to 4 MinM= 0 MaxM= 0.
 Requested accuracy = 0.1000D-12
 PrsmSu:  NPrtUS=   1 ThrOK=F IAlg=1
 PRISM was handed    33379494 working-precision words and  1386 shell-pairs
 IPart=  0 NShTot=        1386 NBatch=          35 AvBLen=        39.6
 Electronic moments (au):
        -66.00000000        452.57725321       -553.93657003       -297.40574073
      -3183.32573196      -6065.15797267      -1946.76054962       3774.15911464
       1999.27439459      -3319.23476977      22938.06414820     -74822.83868275
     -14115.67093915      41255.18628101     -26366.07805246     -13780.81138667
      13012.56947986     -23673.30524035     -41132.94956270      22359.13932039
    -169292.16547165    -985689.36644787    -110685.53497495     188593.31269345
      97241.89169562     508547.26842823    -542250.39096247      93869.10942261
    -182155.60389608    -287516.69325285     -89122.92118046    -309490.86027480
    -154322.39994085     277272.20984521     158422.85312905
 Electronic spatial extent (au):  <R**2>=          11195.2443
 DipInt: DoE/N= F T RetVal/Mat= T F Init=T NMatP=  1 IDeriv=0 Min/MaxMlt=  0  4
 Nuclear    moments (au):
         66.00000000       -453.00902370        554.20188933        296.85307092
       3152.08406217       6039.11424978       1905.08579420      -3780.09140956
      -1998.37597026       3318.60006567     -22233.92265697      74193.01709336
      13554.96120739     -41145.25740158      26125.28751198      13628.97580780
     -12754.12355527      23323.33143949      41019.00647253     -22399.48584665
     159095.51029568     972566.96756807     103378.48404728    -182926.42666594
     -94132.90920589    -505491.03634687     538657.00431399     -90364.09758219
     175863.07025412     283813.96240543      86411.55546290     304927.06631464
     153062.56951778    -277264.56806552    -156484.96999175
 Total      moments (au):
          0.00000000         -0.43177050          0.26531930         -0.55266981
        -31.24166979        -26.04372289        -41.67475542         -5.93229492
          0.89842432         -0.63470410        704.14149123       -629.82158939
       -560.70973176        109.92887943       -240.79054049       -151.83557887
        258.44592459       -349.97380086       -113.94309017        -40.34652626
     -10196.65517598     -13122.39887980      -7307.05092767       5666.88602751
       3108.98248973       3056.23208136      -3593.38664848       3505.01184042
      -6292.53364196      -3702.73084742      -2711.36571756      -4563.79396016
      -1259.83042308          7.64177969       1937.88313730
 Traceless Quadrup. (au):
          1.74504624          6.94299314         -8.68803939         -5.93229492
          0.89842432         -0.63470410
 Charge=              0.0000 electrons
 Dipole moment (field-independent basis, Debye):
    X=             -1.0975    Y=              0.6744    Z=             -1.4047  Tot=              1.9059
 Quadrupole moment (field-independent basis, Debye-Ang):
   XX=            -42.0211   YY=            -35.0297   ZZ=            -56.0540
   XY=             -7.9791   XZ=              1.2084   YZ=             -0.8537
 Traceless Quadrupole moment (field-independent basis, Debye-Ang):
   XX=              2.3471   YY=              9.3386   ZZ=            -11.6857
   XY=             -7.9791   XZ=              1.2084   YZ=             -0.8537
 Octapole moment (field-independent basis, Debye-Ang**2):
  XXX=            501.1808  YYY=           -448.2827  ZZZ=           -399.0916  XYY=             78.2431
  XXY=           -171.3854  XXZ=           -108.0707  XZZ=            183.9518  YZZ=           -249.0979
  YYZ=            -81.1003  XYZ=            -28.7171
 Hexadecapole moment (field-independent basis, Debye-Ang**3):
 XXXX=          -3840.5490 YYYY=          -4942.5243 ZZZZ=          -2752.1856 XXXY=           2134.4209
 XXXZ=           1170.9918 YYYX=           1151.1235 YYYZ=          -1353.4416 ZZZX=           1320.1554
 ZZZY=          -2370.0697 XXYY=          -1394.6259 XXZZ=          -1021.2303 YYZZ=          -1718.9435
 XXYZ=           -474.5125 YYXZ=              2.8783 ZZXY=            729.8997
 N-N= 3.855559950683D+02 E-N=-1.760487981773D+03  KE= 4.201581184995D+02
 Entering OneElI...
 OneElI was handed    33456652 working-precision words.
 Calculate electrostatic properties
    NBasis =   144  MinDer = 0  MaxDer = 0
    NGrid  =    20  NMatD  =   1
 Requested accuracy = 0.1000D-12
 PrsmSu:  NPrtUS=   1 ThrOK=F IAlg=1
 PRISM was handed    33345436 working-precision words and  1279 shell-pairs
 IPart=  0 NShTot=       25580 NBatch=        1279 AvBLen=        20.0
 --------------------------------------------------------
       Center         ----      EFG at Nuclei      ----
                      3XX-RR        3YY-RR        3ZZ-RR
 --------------------------------------------------------
     1   Atom        0.123112      0.070449     -0.193561
     2   Atom        0.116567     -0.279414      0.162847
     3   Atom        0.120279      0.053037     -0.173317
     4   Atom       -0.334131      0.169593      0.164538
     5   Atom        1.305767     -1.267628     -0.038140
     6   Atom        0.140345     -0.298413      0.158067
     7   Atom       -0.330691      0.158013      0.172677
     8   Atom        0.117851      0.048227     -0.166078
     9   Atom        0.146492     -0.311614      0.165122
    10   Atom       -0.330016      0.157297      0.172719
    11   Atom        0.117488      0.047989     -0.165478
    12   Atom        1.295897     -1.257578     -0.038319
    13   Atom        0.147116      0.027427     -0.174543
    14   Atom       -0.329957      0.164244      0.165713
    15   Atom        0.117580      0.049045     -0.166625
    16   Atom        0.147555      0.024835     -0.172389
    17   Atom        0.117479      0.050337     -0.167816
    18   Atom       -0.331307      0.164799      0.166508
    19   Atom        1.272762     -1.204387     -0.068374
    20   Atom        0.174305     -0.400254      0.225949
 --------------------------------------------------------
                        XY            XZ            YZ
 --------------------------------------------------------
     1   Atom       -0.092815     -0.154998     -0.217789
     2   Atom        0.158858     -0.007307     -0.004206
     3   Atom       -0.085432      0.134229      0.186836
     4   Atom       -0.000907     -0.002487     -0.011643
     5   Atom        0.499007     -0.876932     -1.082766
     6   Atom        0.173401     -0.032633     -0.017214
     7   Atom       -0.000005     -0.002305     -0.005374
     8   Atom       -0.076028      0.138785      0.187548
     9   Atom        0.179913     -0.032917     -0.018948
    10   Atom       -0.000115     -0.002055     -0.005258
    11   Atom       -0.075695      0.138969      0.187054
    12   Atom        0.502738     -0.868573     -1.065297
    13   Atom       -0.058231     -0.172086     -0.213741
    14   Atom        0.001184     -0.001159     -0.009324
    15   Atom       -0.082673      0.134832      0.186366
    16   Atom       -0.060936     -0.166825     -0.217670
    17   Atom       -0.081506      0.134935      0.187864
    18   Atom        0.001133     -0.002688     -0.007762
    19   Atom        0.469467     -0.861047     -1.066097
    20   Atom        0.232356     -0.024911     -0.008139
 --------------------------------------------------------


 ---------------------------------------------------------------------------------
              Nuclear Quadrupole in Principal Axis System
 ---------------------------------------------------------------------------------

       Atom             a.u.   MegaHertz   Gauss  10(-4) cm-1        Axes

              Baa    -0.3809   -51.119   -18.240   -17.051  0.3373  0.4644  0.8188
     1 C(13)  Bbb     0.1852    24.856     8.869     8.291  0.8163  0.2890 -0.5002
              Bcc     0.1957    26.263     9.371     8.760 -0.4689  0.8371 -0.2816
 
              Baa    -0.3353  -178.885   -63.831   -59.670 -0.3316  0.9434  0.0031
     2 H(1)   Bbb     0.1581    84.336    30.093    28.132  0.4726  0.1633  0.8660
              Bcc     0.1772    94.548    33.737    31.538  0.8165  0.2887 -0.5000
 
              Baa    -0.3341  -178.286   -63.617   -59.470 -0.3301 -0.4683  0.8196
     3 H(1)   Bbb     0.1552    82.791    29.542    27.616  0.3415  0.7502  0.5662
              Bcc     0.1790    95.494    34.075    31.854  0.8800 -0.4668  0.0877
 
              Baa    -0.3341  -178.284   -63.616   -59.469  1.0000  0.0019  0.0050
     4 H(1)   Bbb     0.1552    82.789    29.541    27.615 -0.0051  0.6278  0.7784
              Bcc     0.1790    95.496    34.075    31.854  0.0017  0.7784 -0.6278
 
              Baa    -1.8980   137.340    49.006    45.812  0.0036  0.8635  0.5044
     5 O(17)  Bbb    -0.1211     8.765     3.127     2.924  0.5773 -0.4136  0.7040
              Bcc     2.0192  -146.105   -52.134   -48.735  0.8165  0.2887 -0.5000
 
              Baa    -0.3587   -48.138   -17.177   -16.057 -0.3276  0.9448  0.0108
     6 C(13)  Bbb     0.1372    18.405     6.567     6.139  0.4740  0.1544  0.8669
              Bcc     0.2216    29.732    10.609     9.918  0.8173  0.2891 -0.4984
 
              Baa    -0.3307  -176.446   -62.960   -58.856  1.0000  0.0001  0.0046
     7 H(1)   Bbb     0.1563    83.371    29.749    27.810 -0.0015  0.9505  0.3108
              Bcc     0.1744    93.076    33.212    31.047 -0.0043 -0.3108  0.9505
 
              Baa    -0.3307  -176.457   -62.964   -58.860 -0.3326 -0.4711  0.8170
     8 H(1)   Bbb     0.1563    83.391    29.756    27.816 -0.1951  0.8819  0.4291
              Bcc     0.1744    93.065    33.208    31.043  0.9227  0.0167  0.3852
 
              Baa    -0.3739   -50.176   -17.904   -16.737 -0.3260  0.9453  0.0133
     9 C(13)  Bbb     0.1438    19.295     6.885     6.436  0.4747  0.1515  0.8670
              Bcc     0.2301    30.882    11.019    10.301  0.8175  0.2889 -0.4982
 
              Baa    -0.3300  -176.085   -62.832   -58.736  1.0000  0.0003  0.0041
    10 H(1)   Bbb     0.1557    83.062    29.638    27.706 -0.0015  0.9556  0.2947
              Bcc     0.1743    93.024    33.193    31.029 -0.0038 -0.2947  0.9556
 
              Baa    -0.3300  -176.087   -62.832   -58.736 -0.3333 -0.4709  0.8168
    11 H(1)   Bbb     0.1557    83.065    29.639    27.707 -0.2108  0.8816  0.4223
              Bcc     0.1743    93.023    33.193    31.029  0.9190  0.0314  0.3931
 
              Baa    -1.8753   135.699    48.421    45.264  0.0003  0.8650  0.5018
    12 O(17)  Bbb    -0.1279     9.256     3.303     3.088  0.5761 -0.4103  0.7069
              Bcc     2.0033  -144.955   -51.724   -48.352  0.8174  0.2889 -0.4985
 
              Baa    -0.3706   -49.725   -17.743   -16.587  0.3246  0.4839  0.8127
    13 C(13)  Bbb     0.1391    18.662     6.659     6.225 -0.4760  0.8260 -0.3018
              Bcc     0.2315    31.063    11.084    10.362  0.8173  0.2889 -0.4985
 
              Baa    -0.3300  -176.052   -62.820   -58.725  1.0000 -0.0024  0.0023
    14 H(1)   Bbb     0.1556    83.034    29.629    27.697  0.0002  0.7343  0.6788
              Bcc     0.1743    93.018    33.191    31.027 -0.0033 -0.6788  0.7343
 
              Baa    -0.3300  -176.052   -62.820   -58.725 -0.3331 -0.4736  0.8153
    15 H(1)   Bbb     0.1556    83.034    29.629    27.697  0.2064  0.8071  0.5531
              Bcc     0.1743    93.018    33.191    31.028  0.9200 -0.3525  0.1711
 
              Baa    -0.3709   -49.776   -17.761   -16.604  0.3184  0.4940  0.8091
    16 C(13)  Bbb     0.1433    19.226     6.860     6.413 -0.4799  0.8200 -0.3119
              Bcc     0.2277    30.551    10.901    10.191  0.8175  0.2890 -0.4981
 
              Baa    -0.3313  -176.778   -63.079   -58.967 -0.3313 -0.4727  0.8166
    17 H(1)   Bbb     0.1578    84.219    30.051    28.092  0.1919  0.8136  0.5489
              Bcc     0.1735    92.559    33.027    30.874  0.9238 -0.3386  0.1789
 
              Baa    -0.3313  -176.779   -63.079   -58.967  1.0000 -0.0022  0.0054
    18 H(1)   Bbb     0.1578    84.220    30.052    28.093 -0.0019  0.7450  0.6670
              Bcc     0.1735    92.559    33.027    30.874 -0.0055 -0.6670  0.7450
 
              Baa    -1.8450   133.500    47.636    44.531  0.0149  0.8542  0.5198
    19 O(17)  Bbb    -0.1182     8.553     3.052     2.853  0.5756 -0.4324  0.6940
              Bcc     1.9632  -142.053   -50.688   -47.384  0.8176  0.2888 -0.4981
 
              Baa    -0.4825  -257.417   -91.853   -85.865 -0.3336  0.9427 -0.0009
    20 H(1)   Bbb     0.2109   112.526    40.152    37.535  0.4693  0.1669  0.8671
              Bcc     0.2716   144.891    51.701    48.331  0.8176  0.2888 -0.4981
 

 ---------------------------------------------------------------------------------

 No NMR shielding tensors so no spin-rotation constants.
 Leave Link  601 at Mon May  1 18:01:22 2017, MaxMem=   33554432 cpu:       0.2
 Merz-Kollman atomic radii used.
 Atom Element Radius
    1     6    1.50
    2     1    1.20
    3     1    1.20
    4     1    1.20
    5     8    1.40
    6     6    1.50
    7     1    1.20
    8     1    1.20
    9     6    1.50
   10     1    1.20
   11     1    1.20
   12     8    1.40
   13     6    1.50
   14     1    1.20
   15     1    1.20
   16     6    1.50
   17     1    1.20
   18     1    1.20
   19     8    1.40
   20     1    1.20
 Generate VDW surfaces: Layer= 4 Dens= 6 Start= 1.400 Inc= 0.200

 **********************************************************************

            Electrostatic Properties Using The SCF Density

 **********************************************************************

       Atomic Center    1 is at  -3.871882  1.009070  0.000000
       Atomic Center    2 is at  -3.515227  0.000260  0.000000
       Atomic Center    3 is at  -3.515209  1.513468 -0.873652
       Atomic Center    4 is at  -4.941882  1.009083  0.000000
       Atomic Center    5 is at  -3.395207  1.683173  1.167590
       Atomic Center    6 is at  -3.871516  3.031516  1.168211
       Atomic Center    7 is at  -4.941515  3.031800  1.166410
       Atomic Center    8 is at  -3.513246  3.536745  0.295695
       Atomic Center    9 is at  -3.360108  3.756014  2.427244
       Atomic Center   10 is at  -2.290110  3.755636  2.429098
       Atomic Center   11 is at  -3.718466  3.250846  3.299761
       Atomic Center   12 is at  -3.836300  5.104399  2.427794
       Atomic Center   13 is at  -3.361538  5.777824  3.596554
       Atomic Center   14 is at  -2.291540  5.777764  3.598333
       Atomic Center   15 is at  -3.719685  5.272951  4.469327
       Atomic Center   16 is at  -3.874791  7.229779  3.596515
       Atomic Center   17 is at  -3.516284  7.734764  2.723954
       Atomic Center   18 is at  -4.944789  7.229938  3.594352
       Atomic Center   19 is at  -3.400387  7.902967  4.765556
       Atomic Center   20 is at  -3.719936  8.808223  4.765931
      ESP Fit Center   21 is at  -4.863828  0.394883  1.746086
      ESP Fit Center   22 is at  -4.574974  0.078026  1.746086
      ESP Fit Center   23 is at  -4.191164 -0.113089  1.746086
      ESP Fit Center   24 is at  -5.121080  0.206260  1.484924
      ESP Fit Center   25 is at  -4.844300 -0.113161  1.484924
      ESP Fit Center   26 is at  -4.488742 -0.341664  1.484924
      ESP Fit Center   27 is at  -4.863772 -0.427930  1.166697
      ESP Fit Center   28 is at  -4.960667 -0.596768  0.803635
      ESP Fit Center   29 is at  -5.132605 -0.619650  0.409690
      ESP Fit Center   30 is at  -1.854394  0.594466  0.409690
      ESP Fit Center   31 is at  -1.771882  1.009070  0.000000
      ESP Fit Center   32 is at  -1.812233  1.418760  0.000000
      ESP Fit Center   33 is at  -5.038579 -0.737016  0.000000
      ESP Fit Center   34 is at  -1.812233  0.599381  0.000000
      ESP Fit Center   35 is at  -1.812233  1.009070 -0.409690
      ESP Fit Center   36 is at  -1.854394  1.423675 -0.409690
      ESP Fit Center   37 is at  -5.132605 -0.619650 -0.409690
      ESP Fit Center   38 is at  -1.854394  0.594466 -0.409690
      ESP Fit Center   39 is at  -4.590004  2.811422 -0.803635
      ESP Fit Center   40 is at  -4.960667  2.614909 -0.803635
      ESP Fit Center   41 is at  -4.960667 -0.596768 -0.803635
      ESP Fit Center   42 is at  -1.977094  0.591996 -0.803635
      ESP Fit Center   43 is at  -4.863772 -0.427930 -1.166697
      ESP Fit Center   44 is at  -5.121080  1.811881 -1.484924
      ESP Fit Center   45 is at  -5.121080  0.206260 -1.484924
      ESP Fit Center   46 is at  -4.844300 -0.113161 -1.484924
      ESP Fit Center   47 is at  -4.488742 -0.341664 -1.484924
      ESP Fit Center   48 is at  -2.622684  0.206260 -1.484924
      ESP Fit Center   49 is at  -5.018714  1.223450 -1.746086
      ESP Fit Center   50 is at  -5.018714  0.794690 -1.746086
      ESP Fit Center   51 is at  -4.863828  0.394883 -1.746086
      ESP Fit Center   52 is at  -4.574974  0.078026 -1.746086
      ESP Fit Center   53 is at  -4.191164 -0.113089 -1.746086
      ESP Fit Center   54 is at  -3.764233 -0.152650 -1.746086
      ESP Fit Center   55 is at  -3.351840 -0.035314 -1.746086
      ESP Fit Center   56 is at  -4.567850  0.607253 -1.940147
      ESP Fit Center   57 is at  -4.273700  0.313102 -1.940147
      ESP Fit Center   58 is at  -3.871882  0.205435 -1.940147
      ESP Fit Center   59 is at  -3.732635 -0.376301  1.622755
      ESP Fit Center   60 is at  -3.297819 -0.376301  1.622755
      ESP Fit Center   61 is at  -3.935227 -0.727201  1.454923
      ESP Fit Center   62 is at  -3.515227 -0.839740  1.454923
      ESP Fit Center   63 is at  -3.095227 -0.727201  1.454923
      ESP Fit Center   64 is at  -2.787766 -0.419740  1.454923
      ESP Fit Center   65 is at  -2.327288  0.000260  1.187939
      ESP Fit Center   66 is at  -4.525234 -0.625109  1.187939
      ESP Fit Center   67 is at  -4.231121 -0.947736  1.187939
      ESP Fit Center   68 is at  -3.840323 -1.142330  1.187939
      ESP Fit Center   69 is at  -3.405618 -1.182612  1.187939
      ESP Fit Center   70 is at  -2.985717 -1.063139  1.187939
      ESP Fit Center   71 is at  -2.637330 -0.800049  1.187939
      ESP Fit Center   72 is at  -2.407507 -0.428873  1.187939
      ESP Fit Center   73 is at  -2.060305  0.000260  0.840000
      ESP Fit Center   74 is at  -4.581761 -0.989338  0.840000
      ESP Fit Center   75 is at  -4.242689 -1.259740  0.840000
      ESP Fit Center   76 is at  -3.838978 -1.418184  0.840000
      ESP Fit Center   77 is at  -3.406501 -1.450594  0.840000
      ESP Fit Center   78 is at  -2.983685 -1.354089  0.840000
      ESP Fit Center   79 is at  -2.608098 -1.137244  0.840000
      ESP Fit Center   80 is at  -2.313114 -0.819327  0.840000
      ESP Fit Center   81 is at  -2.124943 -0.428586  0.840000
      ESP Fit Center   82 is at  -1.892472  0.000260  0.434816
      ESP Fit Center   83 is at  -4.920575 -0.811117  0.434816
      ESP Fit Center   84 is at  -4.662689 -1.147201  0.434816
      ESP Fit Center   85 is at  -4.326605 -1.405087  0.434816
      ESP Fit Center   86 is at  -3.935227 -1.567201  0.434816
      ESP Fit Center   87 is at  -3.515227 -1.622495  0.434816
      ESP Fit Center   88 is at  -3.095227 -1.567201  0.434816
      ESP Fit Center   89 is at  -2.703850 -1.405087  0.434816
      ESP Fit Center   90 is at  -2.367766 -1.147201  0.434816
      ESP Fit Center   91 is at  -2.109880 -0.811117  0.434816
      ESP Fit Center   92 is at  -1.947766 -0.419740  0.434816
      ESP Fit Center   93 is at  -1.835227  0.000260  0.000000
      ESP Fit Center   94 is at  -4.874376 -0.987219  0.000000
      ESP Fit Center   95 is at  -4.586100 -1.294202  0.000000
      ESP Fit Center   96 is at  -4.230537 -1.519849  0.000000
      ESP Fit Center   97 is at  -3.830028 -1.649982  0.000000
      ESP Fit Center   98 is at  -3.409739 -1.676425  0.000000
      ESP Fit Center   99 is at  -2.996079 -1.597515  0.000000
      ESP Fit Center  100 is at  -2.615038 -1.418211  0.000000
      ESP Fit Center  101 is at  -2.290560 -1.149779  0.000000
      ESP Fit Center  102 is at  -2.043032 -0.809086  0.000000
      ESP Fit Center  103 is at  -1.888008 -0.417539  0.000000
      ESP Fit Center  104 is at  -1.892472  0.000260 -0.434816
      ESP Fit Center  105 is at  -4.920575 -0.811117 -0.434816
      ESP Fit Center  106 is at  -4.662689 -1.147201 -0.434816
      ESP Fit Center  107 is at  -4.326605 -1.405087 -0.434816
      ESP Fit Center  108 is at  -3.935227 -1.567201 -0.434816
      ESP Fit Center  109 is at  -3.515227 -1.622495 -0.434816
      ESP Fit Center  110 is at  -3.095227 -1.567201 -0.434816
      ESP Fit Center  111 is at  -2.703850 -1.405087 -0.434816
      ESP Fit Center  112 is at  -2.367766 -1.147201 -0.434816
      ESP Fit Center  113 is at  -2.109880 -0.811117 -0.434816
      ESP Fit Center  114 is at  -1.947766 -0.419740 -0.434816
      ESP Fit Center  115 is at  -2.060305  0.000260 -0.840000
      ESP Fit Center  116 is at  -4.581761 -0.989338 -0.840000
      ESP Fit Center  117 is at  -4.242689 -1.259740 -0.840000
      ESP Fit Center  118 is at  -3.838978 -1.418184 -0.840000
      ESP Fit Center  119 is at  -3.406501 -1.450594 -0.840000
      ESP Fit Center  120 is at  -2.983685 -1.354089 -0.840000
      ESP Fit Center  121 is at  -2.608098 -1.137244 -0.840000
      ESP Fit Center  122 is at  -2.313114 -0.819327 -0.840000
      ESP Fit Center  123 is at  -2.124943 -0.428586 -0.840000
      ESP Fit Center  124 is at  -2.327288  0.000260 -1.187939
      ESP Fit Center  125 is at  -4.525234 -0.625109 -1.187939
      ESP Fit Center  126 is at  -4.231121 -0.947736 -1.187939
      ESP Fit Center  127 is at  -3.840323 -1.142330 -1.187939
      ESP Fit Center  128 is at  -3.405618 -1.182612 -1.187939
      ESP Fit Center  129 is at  -2.985717 -1.063139 -1.187939
      ESP Fit Center  130 is at  -2.637330 -0.800049 -1.187939
      ESP Fit Center  131 is at  -2.407507 -0.428873 -1.187939
      ESP Fit Center  132 is at  -2.675227  0.000260 -1.454923
      ESP Fit Center  133 is at  -3.935227 -0.727201 -1.454923
      ESP Fit Center  134 is at  -3.515227 -0.839740 -1.454923
      ESP Fit Center  135 is at  -3.095227 -0.727201 -1.454923
      ESP Fit Center  136 is at  -2.787766 -0.419740 -1.454923
      ESP Fit Center  137 is at  -3.732635 -0.376301 -1.622755
      ESP Fit Center  138 is at  -3.297819 -0.376301 -1.622755
      ESP Fit Center  139 is at  -1.947748  1.933468 -0.438836
      ESP Fit Center  140 is at  -2.109862  2.324846 -0.438836
      ESP Fit Center  141 is at  -1.835209  1.513468 -0.873652
      ESP Fit Center  142 is at  -1.887989  1.931267 -0.873652
      ESP Fit Center  143 is at  -2.043014  2.322815 -0.873652
      ESP Fit Center  144 is at  -2.290542  2.663508 -0.873652
      ESP Fit Center  145 is at  -4.586081  2.807931 -0.873652
      ESP Fit Center  146 is at  -1.887989  1.095669 -0.873652
      ESP Fit Center  147 is at  -1.892454  1.513468 -1.308467
      ESP Fit Center  148 is at  -1.947748  1.933468 -1.308467
      ESP Fit Center  149 is at  -2.109862  2.324846 -1.308467
      ESP Fit Center  150 is at  -2.367748  2.660930 -1.308467
      ESP Fit Center  151 is at  -2.703831  2.918816 -1.308467
      ESP Fit Center  152 is at  -3.095209  3.080930 -1.308467
      ESP Fit Center  153 is at  -3.935209  3.080930 -1.308467
      ESP Fit Center  154 is at  -4.326587  2.918816 -1.308467
      ESP Fit Center  155 is at  -4.662670  2.660930 -1.308467
      ESP Fit Center  156 is at  -4.920556  2.324846 -1.308467
      ESP Fit Center  157 is at  -2.109862  0.702091 -1.308467
      ESP Fit Center  158 is at  -1.947748  1.093468 -1.308467
      ESP Fit Center  159 is at  -2.060286  1.513468 -1.713652
      ESP Fit Center  160 is at  -2.124925  1.942314 -1.713652
      ESP Fit Center  161 is at  -2.313096  2.333056 -1.713652
      ESP Fit Center  162 is at  -2.608080  2.650973 -1.713652
      ESP Fit Center  163 is at  -2.983666  2.867818 -1.713652
      ESP Fit Center  164 is at  -3.406483  2.964323 -1.713652
      ESP Fit Center  165 is at  -3.838960  2.931913 -1.713652
      ESP Fit Center  166 is at  -4.242670  2.773468 -1.713652
      ESP Fit Center  167 is at  -4.581743  2.503067 -1.713652
      ESP Fit Center  168 is at  -4.826049  2.144736 -1.713652
      ESP Fit Center  169 is at  -4.953881  1.730313 -1.713652
      ESP Fit Center  170 is at  -2.983666  0.159119 -1.713652
      ESP Fit Center  171 is at  -2.608080  0.375964 -1.713652
      ESP Fit Center  172 is at  -2.313096  0.693881 -1.713652
      ESP Fit Center  173 is at  -2.124925  1.084622 -1.713652
      ESP Fit Center  174 is at  -2.327270  1.513468 -2.061591
      ESP Fit Center  175 is at  -2.407489  1.942602 -2.061591
      ESP Fit Center  176 is at  -2.637311  2.313778 -2.061591
      ESP Fit Center  177 is at  -2.985699  2.576868 -2.061591
      ESP Fit Center  178 is at  -3.405600  2.696340 -2.061591
      ESP Fit Center  179 is at  -3.840304  2.656059 -2.061591
      ESP Fit Center  180 is at  -4.231102  2.461465 -2.061591
      ESP Fit Center  181 is at  -4.525215  2.138838 -2.061591
      ESP Fit Center  182 is at  -4.682922  1.731752 -2.061591
      ESP Fit Center  183 is at  -4.682922  1.295185 -2.061591
      ESP Fit Center  184 is at  -4.525215  0.888099 -2.061591
      ESP Fit Center  185 is at  -4.231102  0.565472 -2.061591
      ESP Fit Center  186 is at  -3.840304  0.370878 -2.061591
      ESP Fit Center  187 is at  -3.405600  0.330597 -2.061591
      ESP Fit Center  188 is at  -2.985699  0.450069 -2.061591
      ESP Fit Center  189 is at  -2.637311  0.713159 -2.061591
      ESP Fit Center  190 is at  -2.407489  1.084335 -2.061591
      ESP Fit Center  191 is at  -2.675209  1.513468 -2.328574
      ESP Fit Center  192 is at  -2.787748  1.933468 -2.328574
      ESP Fit Center  193 is at  -3.095209  2.240930 -2.328574
      ESP Fit Center  194 is at  -3.515209  2.353468 -2.328574
      ESP Fit Center  195 is at  -3.935209  2.240930 -2.328574
      ESP Fit Center  196 is at  -4.242670  1.933468 -2.328574
      ESP Fit Center  197 is at  -4.355209  1.513468 -2.328574
      ESP Fit Center  198 is at  -4.242670  1.093468 -2.328574
      ESP Fit Center  199 is at  -3.935209  0.786007 -2.328574
      ESP Fit Center  200 is at  -3.515209  0.673468 -2.328574
      ESP Fit Center  201 is at  -3.095209  0.786007 -2.328574
      ESP Fit Center  202 is at  -2.787748  1.093468 -2.328574
      ESP Fit Center  203 is at  -3.080393  1.513468 -2.496407
      ESP Fit Center  204 is at  -3.297801  1.890030 -2.496407
      ESP Fit Center  205 is at  -3.732617  1.890030 -2.496407
      ESP Fit Center  206 is at  -3.950025  1.513468 -2.496407
      ESP Fit Center  207 is at  -3.732617  1.136907 -2.496407
      ESP Fit Center  208 is at  -3.297801  1.136907 -2.496407
      ESP Fit Center  209 is at  -3.515209  1.513468 -2.553652
      ESP Fit Center  210 is at  -5.376698  1.009083  1.622755
      ESP Fit Center  211 is at  -5.159290  0.632522  1.622755
      ESP Fit Center  212 is at  -5.669343  1.429083  1.454923
      ESP Fit Center  213 is at  -5.781882  1.009083  1.454923
      ESP Fit Center  214 is at  -5.669343  0.589083  1.454923
      ESP Fit Center  215 is at  -5.361882  0.281622  1.454923
      ESP Fit Center  216 is at  -5.951888  1.634453  1.187939
      ESP Fit Center  217 is at  -6.109594  1.227367  1.187939
      ESP Fit Center  218 is at  -6.109594  0.790800  1.187939
      ESP Fit Center  219 is at  -5.951888  0.383714  1.187939
      ESP Fit Center  220 is at  -5.657775  0.061087  1.187939
      ESP Fit Center  221 is at  -5.266977 -0.133507  1.187939
      ESP Fit Center  222 is at  -6.252722  1.640351  0.840000
      ESP Fit Center  223 is at  -6.380554  1.225928  0.840000
      ESP Fit Center  224 is at  -6.380554  0.792238  0.840000
      ESP Fit Center  225 is at  -6.252722  0.377816  0.840000
      ESP Fit Center  226 is at  -6.008416  0.019485  0.840000
      ESP Fit Center  227 is at  -5.669343 -0.250917  0.840000
      ESP Fit Center  228 is at  -5.265633 -0.409361  0.840000
      ESP Fit Center  229 is at  -6.347229  1.820461  0.434816
      ESP Fit Center  230 is at  -6.509343  1.429083  0.434816
      ESP Fit Center  231 is at  -6.564637  1.009083  0.434816
      ESP Fit Center  232 is at  -6.509343  0.589083  0.434816
      ESP Fit Center  233 is at  -6.347229  0.197706  0.434816
      ESP Fit Center  234 is at  -6.089343 -0.138378  0.434816
      ESP Fit Center  235 is at  -5.753260 -0.396264  0.434816
      ESP Fit Center  236 is at  -5.361882 -0.558378  0.434816
      ESP Fit Center  237 is at  -6.012754  2.303546  0.000000
      ESP Fit Center  238 is at  -6.301030  1.996563  0.000000
      ESP Fit Center  239 is at  -6.503906  1.627533  0.000000
      ESP Fit Center  240 is at  -6.608635  1.219643  0.000000
      ESP Fit Center  241 is at  -6.608635  0.798524  0.000000
      ESP Fit Center  242 is at  -6.503906  0.390634  0.000000
      ESP Fit Center  243 is at  -6.301030  0.021604  0.000000
      ESP Fit Center  244 is at  -6.012754 -0.285379  0.000000
      ESP Fit Center  245 is at  -5.657191 -0.511026  0.000000
      ESP Fit Center  246 is at  -5.256683 -0.641159  0.000000
      ESP Fit Center  247 is at  -5.361882  2.576545 -0.434816
      ESP Fit Center  248 is at  -5.753260  2.414431 -0.434816
      ESP Fit Center  249 is at  -6.089343  2.156545 -0.434816
      ESP Fit Center  250 is at  -6.347229  1.820461 -0.434816
      ESP Fit Center  251 is at  -6.509343  1.429083 -0.434816
      ESP Fit Center  252 is at  -6.564637  1.009083 -0.434816
      ESP Fit Center  253 is at  -6.509343  0.589083 -0.434816
      ESP Fit Center  254 is at  -6.347229  0.197706 -0.434816
      ESP Fit Center  255 is at  -6.089343 -0.138378 -0.434816
      ESP Fit Center  256 is at  -5.753260 -0.396264 -0.434816
      ESP Fit Center  257 is at  -5.361882 -0.558378 -0.434816
      ESP Fit Center  258 is at  -5.265633  2.427528 -0.840000
      ESP Fit Center  259 is at  -5.669343  2.269083 -0.840000
      ESP Fit Center  260 is at  -6.008416  1.998682 -0.840000
      ESP Fit Center  261 is at  -6.252722  1.640351 -0.840000
      ESP Fit Center  262 is at  -6.380554  1.225928 -0.840000
      ESP Fit Center  263 is at  -6.380554  0.792238 -0.840000
      ESP Fit Center  264 is at  -6.252722  0.377816 -0.840000
      ESP Fit Center  265 is at  -6.008416  0.019485 -0.840000
      ESP Fit Center  266 is at  -5.669343 -0.250917 -0.840000
      ESP Fit Center  267 is at  -5.265633 -0.409361 -0.840000
      ESP Fit Center  268 is at  -5.266977  2.151674 -1.187939
      ESP Fit Center  269 is at  -5.657775  1.957080 -1.187939
      ESP Fit Center  270 is at  -5.951888  1.634453 -1.187939
      ESP Fit Center  271 is at  -6.109594  1.227367 -1.187939
      ESP Fit Center  272 is at  -6.109594  0.790800 -1.187939
      ESP Fit Center  273 is at  -5.951888  0.383714 -1.187939
      ESP Fit Center  274 is at  -5.657775  0.061087 -1.187939
      ESP Fit Center  275 is at  -5.266977 -0.133507 -1.187939
      ESP Fit Center  276 is at  -5.361882  1.736545 -1.454923
      ESP Fit Center  277 is at  -5.669343  1.429083 -1.454923
      ESP Fit Center  278 is at  -5.781882  1.009083 -1.454923
      ESP Fit Center  279 is at  -5.669343  0.589083 -1.454923
      ESP Fit Center  280 is at  -5.361882  0.281622 -1.454923
      ESP Fit Center  281 is at  -5.159290  1.385645 -1.622755
      ESP Fit Center  282 is at  -5.376698  1.009083 -1.622755
      ESP Fit Center  283 is at  -5.159290  0.632522 -1.622755
      ESP Fit Center  284 is at  -2.987700  1.683173  3.084760
      ESP Fit Center  285 is at  -3.598960  1.330261  3.084760
      ESP Fit Center  286 is at  -3.191454  1.330261  3.084760
      ESP Fit Center  287 is at  -2.598003  1.683173  2.958139
      ESP Fit Center  288 is at  -4.085606  1.284571  2.958139
      ESP Fit Center  289 is at  -3.793809  0.992774  2.958139
      ESP Fit Center  290 is at  -3.395207  0.885969  2.958139
      ESP Fit Center  291 is at  -2.996605  0.992774  2.958139
      ESP Fit Center  292 is at  -2.704808  1.284571  2.958139
      ESP Fit Center  293 is at  -2.243148  1.683173  2.753264
      ESP Fit Center  294 is at  -4.527650  1.471482  2.753264
      ESP Fit Center  295 is at  -4.374707  1.076692  2.753264
      ESP Fit Center  296 is at  -4.089478  0.763810  2.753264
      ESP Fit Center  297 is at  -3.710483  0.575093  2.753264
      ESP Fit Center  298 is at  -3.288908  0.536028  2.753264
      ESP Fit Center  299 is at  -2.881690  0.651892  2.753264
      ESP Fit Center  300 is at  -2.543825  0.907035  2.753264
      ESP Fit Center  301 is at  -2.320944  1.267001  2.753264
      ESP Fit Center  302 is at  -1.938643  1.683173  2.479086
      ESP Fit Center  303 is at  -1.997644  2.093534  2.479086
      ESP Fit Center  304 is at  -4.851771  1.683173  2.479086
      ESP Fit Center  305 is at  -4.792770  1.272811  2.479086
      ESP Fit Center  306 is at  -4.620546  0.895695  2.479086
      ESP Fit Center  307 is at  -4.349053  0.582375  2.479086
      ESP Fit Center  308 is at  -4.000285  0.358235  2.479086
      ESP Fit Center  309 is at  -3.602498  0.241434  2.479086
      ESP Fit Center  310 is at  -3.187916  0.241434  2.479086
      ESP Fit Center  311 is at  -2.790128  0.358235  2.479086
      ESP Fit Center  312 is at  -2.441361  0.582375  2.479086
      ESP Fit Center  313 is at  -2.169867  0.895695  2.479086
      ESP Fit Center  314 is at  -1.997644  1.272811  2.479086
      ESP Fit Center  315 is at  -1.697797  1.683173  2.147590
      ESP Fit Center  316 is at  -1.751124  2.105301  2.147590
      ESP Fit Center  317 is at  -5.079232  1.470431  2.147590
      ESP Fit Center  318 is at  -4.973419  1.058314  2.147590
      ESP Fit Center  319 is at  -4.768440  0.685460  2.147590
      ESP Fit Center  320 is at  -4.477177  0.375296  2.147590
      ESP Fit Center  321 is at  -4.117929  0.147310  2.147590
      ESP Fit Center  322 is at  -3.713270  0.015829  2.147590
      ESP Fit Center  323 is at  -3.288626 -0.010888  2.147590
      ESP Fit Center  324 is at  -2.870679  0.068840  2.147590
      ESP Fit Center  325 is at  -2.485689  0.250002  2.147590
      ESP Fit Center  326 is at  -2.157849  0.521216  2.147590
      ESP Fit Center  327 is at  -1.907755  0.865439  2.147590
      ESP Fit Center  328 is at  -1.751124  1.261044  2.147590
      ESP Fit Center  329 is at  -1.531136  1.683173  1.773264
      ESP Fit Center  330 is at  -1.577872  2.097967  1.773264
      ESP Fit Center  331 is at  -5.212542  1.268378  1.773264
      ESP Fit Center  332 is at  -5.074677  0.874383  1.773264
      ESP Fit Center  333 is at  -3.810002 -0.134162  1.773264
      ESP Fit Center  334 is at  -3.395207 -0.180898  1.773264
      ESP Fit Center  335 is at  -2.980412 -0.134162  1.773264
      ESP Fit Center  336 is at  -2.586417  0.003703  1.773264
      ESP Fit Center  337 is at  -2.232978  0.225783  1.773264
      ESP Fit Center  338 is at  -1.937818  0.520943  1.773264
      ESP Fit Center  339 is at  -1.715737  0.874383  1.773264
      ESP Fit Center  340 is at  -1.577872  1.268378  1.773264
      ESP Fit Center  341 is at  -1.445944  1.683173  1.372466
      ESP Fit Center  342 is at  -1.491517  2.102206  1.372466
      ESP Fit Center  343 is at  -1.626104  2.501647  1.372466
      ESP Fit Center  344 is at  -2.482156 -0.039025  1.372466
      ESP Fit Center  345 is at  -2.133281  0.197518  1.372466
      ESP Fit Center  346 is at  -1.843412  0.503529  1.372466
      ESP Fit Center  347 is at  -1.626104  0.864698  1.372466
      ESP Fit Center  348 is at  -1.491517  1.264139  1.372466
      ESP Fit Center  349 is at  -1.445944  1.683173  0.962715
      ESP Fit Center  350 is at  -1.491517  2.102206  0.962715
      ESP Fit Center  351 is at  -1.626104  2.501647  0.962715
      ESP Fit Center  352 is at  -2.133281  0.197518  0.962715
      ESP Fit Center  353 is at  -1.843412  0.503529  0.962715
      ESP Fit Center  354 is at  -1.626104  0.864698  0.962715
      ESP Fit Center  355 is at  -1.491517  1.264139  0.962715
      ESP Fit Center  356 is at  -1.531136  1.683173  0.561917
      ESP Fit Center  357 is at  -1.577872  2.097967  0.561917
      ESP Fit Center  358 is at  -1.715737  2.491963  0.561917
      ESP Fit Center  359 is at  -1.715737  0.874383  0.561917
      ESP Fit Center  360 is at  -1.577872  1.268378  0.561917
      ESP Fit Center  361 is at  -1.697797  1.683173  0.187590
      ESP Fit Center  362 is at  -1.751124  2.105301  0.187590
      ESP Fit Center  363 is at  -1.907755  2.500906  0.187590
      ESP Fit Center  364 is at  -1.751124  1.261044  0.187590
      ESP Fit Center  365 is at  -1.997644  2.093534 -0.143906
      ESP Fit Center  366 is at  -2.169867  2.470650 -0.143906
      ESP Fit Center  367 is at  -5.120714  2.228705  2.653136
      ESP Fit Center  368 is at  -4.843935  1.909285  2.653136
      ESP Fit Center  369 is at  -1.811867  3.031516  0.758522
      ESP Fit Center  370 is at  -1.854028  3.446120  0.758522
      ESP Fit Center  371 is at  -5.132240  4.660236  0.758522
      ESP Fit Center  372 is at  -4.589639  4.833867  0.364576
      ESP Fit Center  373 is at  -4.960302  4.637354  0.364576
      ESP Fit Center  374 is at  -5.120714  3.834326 -0.316713
      ESP Fit Center  375 is at  -5.018348  3.245896 -0.577875
      ESP Fit Center  376 is at  -5.018348  2.817136 -0.577875
      ESP Fit Center  377 is at  -5.376331  3.031800  2.789165
      ESP Fit Center  378 is at  -5.668976  3.451800  2.621333
      ESP Fit Center  379 is at  -5.781515  3.031800  2.621333
      ESP Fit Center  380 is at  -5.668976  2.611800  2.621333
      ESP Fit Center  381 is at  -5.361515  2.304339  2.621333
      ESP Fit Center  382 is at  -5.657408  3.979797  2.354349
      ESP Fit Center  383 is at  -5.951521  3.657170  2.354349
      ESP Fit Center  384 is at  -6.109227  3.250084  2.354349
      ESP Fit Center  385 is at  -6.109227  2.813517  2.354349
      ESP Fit Center  386 is at  -5.951521  2.406431  2.354349
      ESP Fit Center  387 is at  -5.657408  2.083804  2.354349
      ESP Fit Center  388 is at  -5.266610  1.889210  2.354349
      ESP Fit Center  389 is at  -5.668976  4.291800  2.006410
      ESP Fit Center  390 is at  -6.008048  4.021399  2.006410
      ESP Fit Center  391 is at  -6.252355  3.663068  2.006410
      ESP Fit Center  392 is at  -6.380187  3.248645  2.006410
      ESP Fit Center  393 is at  -6.380187  2.814955  2.006410
      ESP Fit Center  394 is at  -6.252355  2.400533  2.006410
      ESP Fit Center  395 is at  -6.008048  2.042202  2.006410
      ESP Fit Center  396 is at  -5.668976  1.771800  2.006410
      ESP Fit Center  397 is at  -5.265265  1.613356  2.006410
      ESP Fit Center  398 is at  -5.752892  4.437148  1.601226
      ESP Fit Center  399 is at  -6.088976  4.179262  1.601226
      ESP Fit Center  400 is at  -6.346862  3.843178  1.601226
      ESP Fit Center  401 is at  -6.508976  3.451800  1.601226
      ESP Fit Center  402 is at  -6.564270  3.031800  1.601226
      ESP Fit Center  403 is at  -6.508976  2.611800  1.601226
      ESP Fit Center  404 is at  -6.346862  2.220423  1.601226
      ESP Fit Center  405 is at  -6.088976  1.884339  1.601226
      ESP Fit Center  406 is at  -5.752892  1.626453  1.601226
      ESP Fit Center  407 is at  -5.361515  1.464339  1.601226
      ESP Fit Center  408 is at  -5.656824  4.551910  1.166410
      ESP Fit Center  409 is at  -6.012387  4.326263  1.166410
      ESP Fit Center  410 is at  -6.300663  4.019280  1.166410
      ESP Fit Center  411 is at  -6.503539  3.650250  1.166410
      ESP Fit Center  412 is at  -6.608267  3.242360  1.166410
      ESP Fit Center  413 is at  -6.608267  2.821241  1.166410
      ESP Fit Center  414 is at  -6.503539  2.413351  1.166410
      ESP Fit Center  415 is at  -6.300663  2.044321  1.166410
      ESP Fit Center  416 is at  -6.012387  1.737338  1.166410
      ESP Fit Center  417 is at  -5.361515  4.599262  0.731594
      ESP Fit Center  418 is at  -5.752892  4.437148  0.731594
      ESP Fit Center  419 is at  -6.088976  4.179262  0.731594
      ESP Fit Center  420 is at  -6.346862  3.843178  0.731594
      ESP Fit Center  421 is at  -6.508976  3.451800  0.731594
      ESP Fit Center  422 is at  -6.564270  3.031800  0.731594
      ESP Fit Center  423 is at  -6.508976  2.611800  0.731594
      ESP Fit Center  424 is at  -6.346862  2.220423  0.731594
      ESP Fit Center  425 is at  -5.265265  4.450245  0.326410
      ESP Fit Center  426 is at  -5.668976  4.291800  0.326410
      ESP Fit Center  427 is at  -6.008048  4.021399  0.326410
      ESP Fit Center  428 is at  -6.252355  3.663068  0.326410
      ESP Fit Center  429 is at  -6.380187  3.248645  0.326410
      ESP Fit Center  430 is at  -6.380187  2.814955  0.326410
      ESP Fit Center  431 is at  -6.252355  2.400533  0.326410
      ESP Fit Center  432 is at  -5.266610  4.174391 -0.021529
      ESP Fit Center  433 is at  -5.657408  3.979797 -0.021529
      ESP Fit Center  434 is at  -5.951521  3.657170 -0.021529
      ESP Fit Center  435 is at  -6.109227  3.250084 -0.021529
      ESP Fit Center  436 is at  -6.109227  2.813517 -0.021529
      ESP Fit Center  437 is at  -5.951521  2.406431 -0.021529
      ESP Fit Center  438 is at  -5.361515  3.759262 -0.288513
      ESP Fit Center  439 is at  -5.668976  3.451800 -0.288513
      ESP Fit Center  440 is at  -5.781515  3.031800 -0.288513
      ESP Fit Center  441 is at  -5.668976  2.611800 -0.288513
      ESP Fit Center  442 is at  -5.158923  3.408362 -0.456345
      ESP Fit Center  443 is at  -5.376331  3.031800 -0.456345
      ESP Fit Center  444 is at  -5.158923  2.655239 -0.456345
      ESP Fit Center  445 is at  -1.945784  3.956745  0.730511
      ESP Fit Center  446 is at  -2.107898  4.348123  0.730511
      ESP Fit Center  447 is at  -2.365784  4.684207  0.730511
      ESP Fit Center  448 is at  -2.701868  4.942093  0.730511
      ESP Fit Center  449 is at  -1.833246  3.536745  0.295695
      ESP Fit Center  450 is at  -1.886026  3.954544  0.295695
      ESP Fit Center  451 is at  -2.041050  4.346092  0.295695
      ESP Fit Center  452 is at  -2.288578  4.686784  0.295695
      ESP Fit Center  453 is at  -2.613057  4.955216  0.295695
      ESP Fit Center  454 is at  -2.994097  5.134520  0.295695
      ESP Fit Center  455 is at  -3.407758  5.213430  0.295695
      ESP Fit Center  456 is at  -3.828046  5.186988  0.295695
      ESP Fit Center  457 is at  -4.228555  5.056855  0.295695
      ESP Fit Center  458 is at  -4.584118  4.831208  0.295695
      ESP Fit Center  459 is at  -1.886026  3.118946  0.295695
      ESP Fit Center  460 is at  -1.890490  3.536745 -0.139121
      ESP Fit Center  461 is at  -1.945784  3.956745 -0.139121
      ESP Fit Center  462 is at  -2.107898  4.348123 -0.139121
      ESP Fit Center  463 is at  -2.365784  4.684207 -0.139121
      ESP Fit Center  464 is at  -2.701868  4.942093 -0.139121
      ESP Fit Center  465 is at  -3.093246  5.104207 -0.139121
      ESP Fit Center  466 is at  -3.513246  5.159501 -0.139121
      ESP Fit Center  467 is at  -3.933246  5.104207 -0.139121
      ESP Fit Center  468 is at  -4.324623  4.942093 -0.139121
      ESP Fit Center  469 is at  -4.660707  4.684207 -0.139121
      ESP Fit Center  470 is at  -4.918593  4.348123 -0.139121
      ESP Fit Center  471 is at  -2.107898  2.725368 -0.139121
      ESP Fit Center  472 is at  -1.945784  3.116745 -0.139121
      ESP Fit Center  473 is at  -2.058323  3.536745 -0.544305
      ESP Fit Center  474 is at  -2.122961  3.965591 -0.544305
      ESP Fit Center  475 is at  -2.311132  4.356332 -0.544305
      ESP Fit Center  476 is at  -2.606116  4.674250 -0.544305
      ESP Fit Center  477 is at  -2.981703  4.891095 -0.544305
      ESP Fit Center  478 is at  -3.404519  4.987600 -0.544305
      ESP Fit Center  479 is at  -3.836996  4.955190 -0.544305
      ESP Fit Center  480 is at  -4.240707  4.796745 -0.544305
      ESP Fit Center  481 is at  -4.579779  4.526344 -0.544305
      ESP Fit Center  482 is at  -4.824086  4.168013 -0.544305
      ESP Fit Center  483 is at  -4.951918  3.753590 -0.544305
      ESP Fit Center  484 is at  -2.311132  2.717158 -0.544305
      ESP Fit Center  485 is at  -2.122961  3.107899 -0.544305
      ESP Fit Center  486 is at  -2.325306  3.536745 -0.892245
      ESP Fit Center  487 is at  -2.405525  3.965879 -0.892245
      ESP Fit Center  488 is at  -2.635348  4.337055 -0.892245
      ESP Fit Center  489 is at  -2.983736  4.600145 -0.892245
      ESP Fit Center  490 is at  -3.403636  4.719617 -0.892245
      ESP Fit Center  491 is at  -3.838341  4.679336 -0.892245
      ESP Fit Center  492 is at  -4.229139  4.484741 -0.892245
      ESP Fit Center  493 is at  -4.523252  4.162115 -0.892245
      ESP Fit Center  494 is at  -4.680958  3.755029 -0.892245
      ESP Fit Center  495 is at  -4.680958  3.318462 -0.892245
      ESP Fit Center  496 is at  -4.523252  2.911376 -0.892245
      ESP Fit Center  497 is at  -2.405525  3.107612 -0.892245
      ESP Fit Center  498 is at  -2.673246  3.536745 -1.159228
      ESP Fit Center  499 is at  -2.785784  3.956745 -1.159228
      ESP Fit Center  500 is at  -3.093246  4.264207 -1.159228
      ESP Fit Center  501 is at  -3.513246  4.376745 -1.159228
      ESP Fit Center  502 is at  -3.933246  4.264207 -1.159228
      ESP Fit Center  503 is at  -4.240707  3.956745 -1.159228
      ESP Fit Center  504 is at  -4.353246  3.536745 -1.159228
      ESP Fit Center  505 is at  -4.240707  3.116745 -1.159228
      ESP Fit Center  506 is at  -2.785784  3.116745 -1.159228
      ESP Fit Center  507 is at  -3.078430  3.536745 -1.327061
      ESP Fit Center  508 is at  -3.295838  3.913307 -1.327061
      ESP Fit Center  509 is at  -3.730654  3.913307 -1.327061
      ESP Fit Center  510 is at  -3.948062  3.536745 -1.327061
      ESP Fit Center  511 is at  -3.730654  3.160184 -1.327061
      ESP Fit Center  512 is at  -3.295838  3.160184 -1.327061
      ESP Fit Center  513 is at  -3.513246  3.536745 -1.384305
      ESP Fit Center  514 is at  -2.193411  3.756014  4.173330
      ESP Fit Center  515 is at  -2.272195  3.334554  4.173330
      ESP Fit Center  516 is at  -2.110910  2.953203  3.912168
      ESP Fit Center  517 is at  -5.288882  3.965781  3.230879
      ESP Fit Center  518 is at  -2.451327  2.041871  3.230879
      ESP Fit Center  519 is at  -2.104083  2.277308  3.230879
      ESP Fit Center  520 is at  -5.409190  3.964385  2.836934
      ESP Fit Center  521 is at  -5.409190  3.547643  2.836934
      ESP Fit Center  522 is at  -2.270628  2.008105  2.836934
      ESP Fit Center  523 is at  -2.110910  4.558825  0.942320
      ESP Fit Center  524 is at  -2.387689  4.878245  0.942320
      ESP Fit Center  525 is at  -1.855294  3.755636  4.051854
      ESP Fit Center  526 is at  -2.072702  4.132197  4.051854
      ESP Fit Center  527 is at  -2.072702  3.379074  4.051854
      ESP Fit Center  528 is at  -1.450110  3.755636  3.884021
      ESP Fit Center  529 is at  -1.562648  4.175636  3.884021
      ESP Fit Center  530 is at  -1.870110  3.028174  3.884021
      ESP Fit Center  531 is at  -1.562648  3.335636  3.884021
      ESP Fit Center  532 is at  -1.102170  3.755636  3.617038
      ESP Fit Center  533 is at  -1.182389  4.184769  3.617038
      ESP Fit Center  534 is at  -1.760600  2.692236  3.617038
      ESP Fit Center  535 is at  -1.412212  2.955326  3.617038
      ESP Fit Center  536 is at  -1.182389  3.326502  3.617038
      ESP Fit Center  537 is at  -0.835187  3.755636  3.269098
      ESP Fit Center  538 is at  -0.899825  4.184482  3.269098
      ESP Fit Center  539 is at  -1.087996  4.575223  3.269098
      ESP Fit Center  540 is at  -1.758567  2.401286  3.269098
      ESP Fit Center  541 is at  -1.382980  2.618131  3.269098
      ESP Fit Center  542 is at  -1.087996  2.936049  3.269098
      ESP Fit Center  543 is at  -0.899825  3.326790  3.269098
      ESP Fit Center  544 is at  -0.667354  3.755636  2.863914
      ESP Fit Center  545 is at  -0.722648  4.175636  2.863914
      ESP Fit Center  546 is at  -0.884762  4.567013  2.863914
      ESP Fit Center  547 is at  -1.870110  2.188174  2.863914
      ESP Fit Center  548 is at  -1.478732  2.350288  2.863914
      ESP Fit Center  549 is at  -1.142648  2.608174  2.863914
      ESP Fit Center  550 is at  -0.884762  2.944258  2.863914
      ESP Fit Center  551 is at  -0.722648  3.335636  2.863914
      ESP Fit Center  552 is at  -0.610110  3.755636  2.429098
      ESP Fit Center  553 is at  -0.662890  4.173435  2.429098
      ESP Fit Center  554 is at  -0.817914  4.564982  2.429098
      ESP Fit Center  555 is at  -1.065442  4.905675  2.429098
      ESP Fit Center  556 is at  -1.770961  2.157861  2.429098
      ESP Fit Center  557 is at  -1.389921  2.337165  2.429098
      ESP Fit Center  558 is at  -1.065442  2.605597  2.429098
      ESP Fit Center  559 is at  -0.817914  2.946289  2.429098
      ESP Fit Center  560 is at  -0.662890  3.337837  2.429098
      ESP Fit Center  561 is at  -0.667354  3.755636  1.994282
      ESP Fit Center  562 is at  -0.722648  4.175636  1.994282
      ESP Fit Center  563 is at  -0.884762  4.567013  1.994282
      ESP Fit Center  564 is at  -1.142648  4.903097  1.994282
      ESP Fit Center  565 is at  -1.478732  5.160983  1.994282
      ESP Fit Center  566 is at  -1.870110  5.323097  1.994282
      ESP Fit Center  567 is at  -1.478732  2.350288  1.994282
      ESP Fit Center  568 is at  -1.142648  2.608174  1.994282
      ESP Fit Center  569 is at  -0.884762  2.944258  1.994282
      ESP Fit Center  570 is at  -0.722648  3.335636  1.994282
      ESP Fit Center  571 is at  -0.835187  3.755636  1.589098
      ESP Fit Center  572 is at  -0.899825  4.184482  1.589098
      ESP Fit Center  573 is at  -1.087996  4.575223  1.589098
      ESP Fit Center  574 is at  -1.382980  4.893140  1.589098
      ESP Fit Center  575 is at  -1.758567  5.109985  1.589098
      ESP Fit Center  576 is at  -1.382980  2.618131  1.589098
      ESP Fit Center  577 is at  -1.087996  2.936049  1.589098
      ESP Fit Center  578 is at  -0.899825  3.326790  1.589098
      ESP Fit Center  579 is at  -1.102170  3.755636  1.241159
      ESP Fit Center  580 is at  -1.182389  4.184769  1.241159
      ESP Fit Center  581 is at  -1.412212  4.555945  1.241159
      ESP Fit Center  582 is at  -1.760600  4.819035  1.241159
      ESP Fit Center  583 is at  -1.412212  2.955326  1.241159
      ESP Fit Center  584 is at  -1.182389  3.326502  1.241159
      ESP Fit Center  585 is at  -1.450110  3.755636  0.974176
[...]
 5171 Fit      -0.007376
 5172 Fit      -0.010232
 5173 Fit      -0.014618
 5174 Fit      -0.003273
 5175 Fit      -0.004195
 5176 Fit      -0.005480
 5177 Fit      -0.005786
 5178 Fit      -0.008030
 5179 Fit      -0.011367
 5180 Fit      -0.016493
 5181 Fit      -0.001800
 5182 Fit      -0.002418
 5183 Fit      -0.003186
 5184 Fit      -0.004252
 5185 Fit      -0.004384
 5186 Fit      -0.006104
 5187 Fit      -0.008562
 5188 Fit      -0.012157
 5189 Fit      -0.000682
 5190 Fit      -0.001147
 5191 Fit      -0.001651
 5192 Fit      -0.002291
 5193 Fit      -0.003164
 5194 Fit      -0.003185
 5195 Fit      -0.004578
 5196 Fit      -0.006518
 5197 Fit      -0.009270
 5198 Fit      -0.013311
 5199 Fit      -0.000005
 5200 Fit      -0.000419
 5201 Fit      -0.000874
 5202 Fit      -0.001434
 5203 Fit      -0.002175
 5204 Fit      -0.002196
 5205 Fit      -0.003298
 5206 Fit      -0.004778
 5207 Fit      -0.006789
 5208 Fit      -0.009582
 5209 Fit       0.000275
 5210 Fit      -0.000201
 5211 Fit      -0.000725
 5212 Fit      -0.001365
 5213 Fit      -0.001416
 5214 Fit      -0.002302
 5215 Fit      -0.003441
 5216 Fit      -0.004919
 5217 Fit      -0.006855
 5218 Fit      -0.009436
 5219 Fit       0.000416
 5220 Fit      -0.000131
 5221 Fit      -0.000716
 5222 Fit      -0.000849
 5223 Fit      -0.001593
 5224 Fit      -0.002504
 5225 Fit      -0.003627
 5226 Fit      -0.005001
 5227 Fit      -0.006657
 5228 Fit       0.000371
 5229 Fit      -0.000220
 5230 Fit      -0.000503
 5231 Fit      -0.001136
 5232 Fit      -0.001857
 5233 Fit      -0.002673
 5234 Fit      -0.003554
 5235 Fit      -0.004398
 5236 Fit       0.000745
 5237 Fit       0.000089
 5238 Fit      -0.000403
 5239 Fit      -0.000930
 5240 Fit      -0.001464
 5241 Fit      -0.001982
 5242 Fit      -0.002392
 5243 Fit       0.000161
 5244 Fit      -0.000603
 5245 Fit      -0.001055
 5246 Fit      -0.001436
 5247 Fit      -0.001683
 5248 Fit      -0.001618
 5249 Fit      -0.000036
 5250 Fit      -0.001213
 5251 Fit      -0.001575
 5252 Fit      -0.001808
 5253 Fit      -0.001810
 5254 Fit      -0.002448
 5255 Fit      -0.002715
 5256 Fit      -0.007696
 5257 Fit      -0.008333
 5258 Fit      -0.011209
 5259 Fit      -0.010245
 5260 Fit      -0.006891
 5261 Fit      -0.005143
 5262 Fit      -0.005708
 5263 Fit      -0.008746
 5264 Fit      -0.012577
 5265 Fit      -0.016120
 5266 Fit      -0.013510
 5267 Fit      -0.009209
 5268 Fit      -0.005975
 5269 Fit      -0.004097
 5270 Fit      -0.003273
 5271 Fit      -0.003306
 5272 Fit      -0.004158
 5273 Fit      -0.005913
 5274 Fit      -0.008875
 5275 Fit      -0.012860
 5276 Fit      -0.011911
 5277 Fit      -0.007699
 5278 Fit      -0.005005
 5279 Fit      -0.003358
 5280 Fit      -0.002388
 5281 Fit      -0.001903
 5282 Fit      -0.001838
 5283 Fit      -0.002181
 5284 Fit      -0.002945
 5285 Fit      -0.004194
 5286 Fit      -0.006083
 5287 Fit      -0.008653
 5288 Fit      -0.007827
 5289 Fit      -0.005003
 5290 Fit      -0.003275
 5291 Fit      -0.002172
 5292 Fit      -0.001447
 5293 Fit      -0.000997
 5294 Fit      -0.000802
 5295 Fit      -0.000876
 5296 Fit      -0.001228
 5297 Fit      -0.001852
 5298 Fit      -0.002769
 5299 Fit      -0.004066
 5300 Fit      -0.005926
 5301 Fit      -0.006053
 5302 Fit      -0.003869
 5303 Fit      -0.002551
 5304 Fit      -0.001673
 5305 Fit      -0.001024
 5306 Fit      -0.000524
 5307 Fit      -0.000167
 5308 Fit       0.000006
 5309 Fit      -0.000053
 5310 Fit      -0.000355
 5311 Fit      -0.000866
 5312 Fit      -0.001559
 5313 Fit      -0.002463
 5314 Fit      -0.003688
 5315 Fit      -0.004225
 5316 Fit      -0.002830
 5317 Fit      -0.001995
 5318 Fit      -0.001391
 5319 Fit      -0.000863
 5320 Fit      -0.000357
 5321 Fit       0.000124
 5322 Fit       0.000530
 5323 Fit       0.000774
 5324 Fit       0.000763
 5325 Fit       0.000476
 5326 Fit      -0.000006
 5327 Fit      -0.000583
 5328 Fit      -0.001237
 5329 Fit      -0.002033
 5330 Fit      -0.002016
 5331 Fit      -0.001671
 5332 Fit      -0.001345
 5333 Fit      -0.000928
 5334 Fit      -0.000391
 5335 Fit       0.000251
 5336 Fit      -0.000055
 5337 Fit      -0.001518
 5338 Fit      -0.001738
 5339 Fit      -0.001719
 5340 Fit      -0.001410
 5341 Fit      -0.000811
 5342 Fit      -0.002669
 5343 Fit      -0.002149
 5344 Fit      -0.006842
 5345 Fit      -0.006465
 5346 Fit      -0.003844
 5347 Fit      -0.002058
 5348 Fit       0.017836
 5349 Fit      -0.005529
 5350 Fit      -0.005534
 5351 Fit      -0.004512
 5352 Fit       0.017615
 5353 Fit       0.015158
 5354 Fit      -0.002768
 5355 Fit       0.016940
 5356 Fit       0.017167
 5357 Fit       0.016420
 5358 Fit       0.014990
 5359 Fit       0.013200
 5360 Fit       0.011332
 5361 Fit       0.013191
 5362 Fit       0.012140
 5363 Fit       0.010734
 5364 Fit       0.009192
 5365 Fit       0.008583
 5366 Fit       0.007223
 5367 Fit       0.006231
 5368 Fit       0.004833
 5369 Fit       0.003281
 5370 Fit       0.002337
 5371 Fit       0.000394
 5372 Fit      -0.002082
 5373 Fit      -0.005424
 5374 Fit      -0.000268
 5375 Fit      -0.003094
 5376 Fit      -0.007009
 5377 Fit      -0.005848
 5378 Fit      -0.003095
 5379 Fit      -0.001844
 5380 Fit       0.000213
 5381 Fit       0.002985
 5382 Fit       0.006288
 5383 Fit       0.009833
 5384 Fit       0.013238
 5385 Fit       0.016074
 5386 Fit      -0.001760
 5387 Fit      -0.001619
 5388 Fit      -0.001000
 5389 Fit       0.000151
 5390 Fit       0.001818
 5391 Fit       0.003916
 5392 Fit       0.006291
 5393 Fit       0.008720
 5394 Fit       0.010937
 5395 Fit       0.012668
 5396 Fit       0.013698
 5397 Fit       0.013918
 5398 Fit      -0.001039
 5399 Fit      -0.000488
 5400 Fit       0.000318
 5401 Fit       0.001448
 5402 Fit       0.002893
 5403 Fit       0.004574
 5404 Fit       0.006352
 5405 Fit       0.008044
 5406 Fit       0.009447
 5407 Fit       0.010382
 5408 Fit       0.010731
 5409 Fit       0.010463
 5410 Fit      -0.001510
 5411 Fit      -0.000729
 5412 Fit       0.000145
 5413 Fit       0.001089
 5414 Fit       0.002186
 5415 Fit       0.003436
 5416 Fit       0.004772
 5417 Fit       0.006077
 5418 Fit       0.007207
 5419 Fit       0.008018
 5420 Fit       0.008397
 5421 Fit       0.008288
 5422 Fit       0.007695
 5423 Fit       0.006672
 5424 Fit      -0.001738
 5425 Fit      -0.000679
 5426 Fit       0.000503
 5427 Fit       0.001609
 5428 Fit       0.002739
 5429 Fit       0.003885
 5430 Fit       0.004969
 5431 Fit       0.005868
 5432 Fit       0.006453
 5433 Fit       0.006619
 5434 Fit       0.006310
 5435 Fit       0.005525
 5436 Fit       0.004287
 5437 Fit       0.002590
 5438 Fit      -0.004518
 5439 Fit      -0.002189
 5440 Fit      -0.000795
 5441 Fit       0.000626
 5442 Fit       0.001834
 5443 Fit       0.002931
 5444 Fit       0.003900
 5445 Fit       0.004648
 5446 Fit       0.005059
 5447 Fit       0.005031
 5448 Fit       0.004505
 5449 Fit       0.003461
 5450 Fit       0.001870
 5451 Fit      -0.000371
 5452 Fit      -0.003508
 5453 Fit      -0.005576
 5454 Fit      -0.002699
 5455 Fit      -0.001016
 5456 Fit       0.000616
 5457 Fit       0.001883
 5458 Fit       0.002863
 5459 Fit       0.003496
 5460 Fit       0.003664
 5461 Fit       0.003257
 5462 Fit       0.002205
 5463 Fit       0.000444
 5464 Fit      -0.002144
 5465 Fit      -0.005721
 5466 Fit      -0.006538
 5467 Fit      -0.003273
 5468 Fit      -0.001296
 5469 Fit       0.000538
 5470 Fit       0.001704
 5471 Fit       0.002161
 5472 Fit       0.001738
 5473 Fit       0.000295
 5474 Fit      -0.002220
 5475 Fit      -0.005605
 5476 Fit      -0.008735
 5477 Fit      -0.007175
 5478 Fit      -0.003931
 5479 Fit      -0.001598
 5480 Fit       0.000173
 5481 Fit       0.000063
 5482 Fit      -0.002111
 5483 Fit      -0.004716
 5484 Fit      -0.004241
 5485 Fit      -0.001885
 5486 Fit      -0.001591
 5487 Fit      -0.002407
 5488 Fit      -0.003209
 5489 Fit       0.003526
 5490 Fit       0.001798
 5491 Fit       0.000537
 5492 Fit      -0.000474
 5493 Fit      -0.001327
 5494 Fit      -0.002006
 5495 Fit       0.008015
 5496 Fit       0.005294
 5497 Fit       0.003462
 5498 Fit       0.002107
 5499 Fit       0.001009
 5500 Fit       0.000064
 5501 Fit      -0.000747
 5502 Fit      -0.001346
 5503 Fit       0.011754
 5504 Fit       0.008305
 5505 Fit       0.006001
 5506 Fit       0.004341
 5507 Fit       0.003042
 5508 Fit       0.001936
 5509 Fit       0.000929
 5510 Fit      -0.000013
 5511 Fit      -0.000870
 5512 Fit      -0.001540
 5513 Fit       0.011441
 5514 Fit       0.008493
 5515 Fit       0.006421
 5516 Fit       0.004856
 5517 Fit       0.003572
 5518 Fit       0.002424
 5519 Fit       0.001323
 5520 Fit       0.000214
 5521 Fit      -0.000921
 5522 Fit      -0.002051
 5523 Fit       0.013945
 5524 Fit       0.010587
 5525 Fit       0.008205
 5526 Fit       0.006424
 5527 Fit       0.004998
 5528 Fit       0.003761
 5529 Fit       0.002596
 5530 Fit       0.001418
 5531 Fit       0.000156
 5532 Fit      -0.001247
 5533 Fit      -0.002846
 5534 Fit      -0.004675
 5535 Fit       0.014110
 5536 Fit       0.011021
 5537 Fit       0.008736
 5538 Fit       0.006978
 5539 Fit       0.005544
 5540 Fit       0.004285
 5541 Fit       0.003087
 5542 Fit       0.001857
 5543 Fit       0.000508
 5544 Fit      -0.001053
 5545 Fit      -0.002949
 5546 Fit      -0.005356
 5547 Fit       0.011566
 5548 Fit       0.009267
 5549 Fit       0.007457
 5550 Fit       0.005965
 5551 Fit       0.004650
 5552 Fit       0.003392
 5553 Fit       0.002086
 5554 Fit       0.000627
 5555 Fit      -0.001112
 5556 Fit      -0.003312
 5557 Fit      -0.006274
 5558 Fit       0.010689
 5559 Fit       0.008667
 5560 Fit       0.006993
 5561 Fit       0.005550
 5562 Fit       0.004219
 5563 Fit       0.002885
 5564 Fit       0.001430
 5565 Fit      -0.000281
 5566 Fit      -0.002439
 5567 Fit      -0.005354
 5568 Fit       0.007764
 5569 Fit       0.006270
 5570 Fit       0.004901
 5571 Fit       0.003566
 5572 Fit       0.002155
 5573 Fit       0.000538
 5574 Fit      -0.001457
 5575 Fit      -0.004098
 5576 Fit      -0.007858
 5577 Fit       0.005626
 5578 Fit       0.004257
 5579 Fit       0.002841
 5580 Fit       0.001261
 5581 Fit      -0.000657
 5582 Fit      -0.003172
 5583 Fit      -0.006729
 5584 Fit       0.003406
 5585 Fit       0.001931
 5586 Fit       0.000169
 5587 Fit      -0.002103
 5588 Fit      -0.005259
 5589 Fit       0.001755
 5590 Fit       0.000020
 5591 Fit      -0.002325
 5592 Fit      -0.005700
 5593 Fit      -0.017230
 5594 Fit      -0.018313
 5595 Fit      -0.015713
 5596 Fit      -0.014384
 5597 Fit      -0.015939
 5598 Fit      -0.018194
 5599 Fit      -0.019260
 5600 Fit      -0.019200
 5601 Fit      -0.016769
 5602 Fit      -0.013755
 5603 Fit      -0.011376
 5604 Fit      -0.010759
 5605 Fit      -0.012069
 5606 Fit      -0.014427
 5607 Fit      -0.016751
 5608 Fit      -0.018503
 5609 Fit      -0.019714
 5610 Fit      -0.020444
 5611 Fit      -0.020409
 5612 Fit      -0.019890
 5613 Fit      -0.017751
 5614 Fit      -0.014788
 5615 Fit      -0.011469
 5616 Fit      -0.008503
 5617 Fit      -0.006647
 5618 Fit      -0.006398
 5619 Fit      -0.007714
 5620 Fit      -0.010050
 5621 Fit      -0.012680
 5622 Fit      -0.015024
 5623 Fit      -0.016806
 5624 Fit      -0.018065
 5625 Fit      -0.019042
 5626 Fit      -0.019949
 5627 Fit      -0.020761
 5628 Fit      -0.021226
 5629 Fit      -0.021022
 5630 Fit      -0.020374
 5631 Fit      -0.018532
 5632 Fit      -0.015868
 5633 Fit      -0.012570
 5634 Fit      -0.008973
 5635 Fit      -0.005548
 5636 Fit      -0.002844
 5637 Fit      -0.001362
 5638 Fit      -0.001365
 5639 Fit      -0.002758
 5640 Fit      -0.005132
 5641 Fit      -0.007941
 5642 Fit      -0.010690
 5643 Fit      -0.013036
 5644 Fit      -0.014812
 5645 Fit      -0.016015
 5646 Fit      -0.016801
 5647 Fit      -0.017442
 5648 Fit      -0.018204
 5649 Fit      -0.019168
 5650 Fit      -0.020199
 5651 Fit      -0.021063
 5652 Fit      -0.021518
 5653 Fit      -0.021345
 5654 Fit      -0.020630
 5655 Fit      -0.019018
 5656 Fit      -0.016586
 5657 Fit      -0.013422
 5658 Fit      -0.009705
 5659 Fit      -0.005715
 5660 Fit      -0.001835
 5661 Fit      -0.000891
 5662 Fit      -0.004023
 5663 Fit      -0.007068
 5664 Fit      -0.009727
 5665 Fit      -0.011826
 5666 Fit      -0.013298
 5667 Fit      -0.014171
 5668 Fit      -0.014574
 5669 Fit      -0.017162
 5670 Fit      -0.018537
 5671 Fit      -0.019835
 5672 Fit      -0.020866
 5673 Fit      -0.021450
 5674 Fit      -0.021416
 5675 Fit      -0.020623
 5676 Fit      -0.019227
 5677 Fit      -0.016994
 5678 Fit      -0.013970
 5679 Fit      -0.010261
 5680 Fit      -0.006042
 5681 Fit      -0.001574
 5682 Fit       0.002158
 5683 Fit      -0.001336
 5684 Fit      -0.004566
 5685 Fit      -0.007309
 5686 Fit      -0.009442
 5687 Fit      -0.010911
 5688 Fit      -0.011708
 5689 Fit      -0.017369
 5690 Fit      -0.018953
 5691 Fit      -0.020222
 5692 Fit      -0.021023
 5693 Fit      -0.021198
 5694 Fit      -0.020315
 5695 Fit      -0.019179
 5696 Fit      -0.017220
 5697 Fit      -0.014458
 5698 Fit      -0.010955
 5699 Fit      -0.006813
 5700 Fit      -0.002194
 5701 Fit       0.001348
 5702 Fit      -0.001930
 5703 Fit      -0.004667
 5704 Fit      -0.006788
 5705 Fit      -0.008254
 5706 Fit      -0.009035
 5707 Fit      -0.017693
 5708 Fit      -0.019200
 5709 Fit      -0.020236
 5710 Fit      -0.020646
 5711 Fit      -0.019662
 5712 Fit      -0.018782
 5713 Fit      -0.017067
 5714 Fit      -0.014532
 5715 Fit      -0.011216
 5716 Fit      -0.007190
 5717 Fit      -0.002558
 5718 Fit       0.002403
 5719 Fit      -0.000601
 5720 Fit      -0.003004
 5721 Fit      -0.017648
 5722 Fit      -0.019017
 5723 Fit      -0.019723
 5724 Fit      -0.018628
 5725 Fit      -0.017979
 5726 Fit      -0.016422
 5727 Fit      -0.013976
 5728 Fit      -0.010679
 5729 Fit      -0.006589
 5730 Fit      -0.001796
 5731 Fit       0.007000
 5732 Fit      -0.017240
 5733 Fit      -0.018372
 5734 Fit      -0.017196
 5735 Fit      -0.016809
 5736 Fit      -0.015464
 5737 Fit      -0.013193
 5738 Fit      -0.010035
 5739 Fit      -0.006041
 5740 Fit      -0.001290
 5741 Fit      -0.016599
 5742 Fit      -0.015373
 5743 Fit      -0.015236
 5744 Fit      -0.014076
 5745 Fit      -0.011940
 5746 Fit      -0.008879
 5747 Fit      -0.004949
 5748 Fit      -0.000227
 5749 Fit      -0.014416
 5750 Fit      -0.013207
 5751 Fit      -0.013285
 5752 Fit      -0.012262
 5753 Fit      -0.010212
 5754 Fit      -0.007195
 5755 Fit      -0.003282
 5756 Fit       0.001433
 5757 Fit      -0.010782
 5758 Fit      -0.011012
 5759 Fit      -0.010123
 5760 Fit      -0.008201
 5761 Fit      -0.005319
 5762 Fit      -0.001561
 5763 Fit       0.002958
 5764 Fit      -0.008461
 5765 Fit      -0.007550
 5766 Fit      -0.005560
 5767 Fit      -0.002584
 5768 Fit       0.001257
 5769 Fit       0.005794
 5770 Fit      -0.002456
 5771 Fit       0.000710
 5772 Fit       0.004677
 5773 Fit       0.000656
 5774 Fit       0.001362
 5775 Fit       0.000549
 5776 Fit       0.003862
 5777 Fit       0.005652
 5778 Fit       0.005932
 5779 Fit       0.004698
 5780 Fit       0.001916
 5781 Fit      -0.000319
 5782 Fit       0.003909
 5783 Fit       0.006964
 5784 Fit       0.008901
 5785 Fit       0.009764
 5786 Fit       0.009573
 5787 Fit       0.008321
 5788 Fit       0.005976
 5789 Fit       0.002473
 5790 Fit       0.003631
 5791 Fit       0.007309
 5792 Fit       0.010020
 5793 Fit       0.011830
 5794 Fit       0.012785
 5795 Fit       0.012914
 5796 Fit       0.012223
 5797 Fit       0.010699
 5798 Fit       0.008309
 5799 Fit       0.004991
 5800 Fit       0.002867
 5801 Fit       0.006921
 5802 Fit       0.010110
 5803 Fit       0.012512
 5804 Fit       0.014187
 5805 Fit       0.015178
 5806 Fit       0.015513
 5807 Fit       0.015206
 5808 Fit       0.014257
 5809 Fit       0.012657
 5810 Fit       0.010378
 5811 Fit       0.007379
 5812 Fit       0.002994
 5813 Fit       0.007260
 5814 Fit       0.010678
 5815 Fit       0.013338
 5816 Fit       0.015308
 5817 Fit       0.016638
 5818 Fit       0.017365
 5819 Fit       0.017512
 5820 Fit       0.017093
 5821 Fit       0.016111
 5822 Fit       0.014563
 5823 Fit       0.012437
 5824 Fit       0.009710
 5825 Fit       0.002960
 5826 Fit       0.007306
 5827 Fit       0.010848
 5828 Fit       0.013674
 5829 Fit       0.015854
 5830 Fit       0.017442
 5831 Fit       0.018477
 5832 Fit       0.018988
 5833 Fit       0.018996
 5834 Fit       0.018513
 5835 Fit       0.017550
 5836 Fit       0.016111
 5837 Fit       0.014201
 5838 Fit       0.011829
 5839 Fit       0.003424
 5840 Fit       0.007728
 5841 Fit       0.011269
 5842 Fit       0.014132
 5843 Fit       0.016382
 5844 Fit       0.018071
 5845 Fit       0.019239
 5846 Fit       0.019915
 5847 Fit       0.020125
 5848 Fit       0.019885
 5849 Fit       0.019211
 5850 Fit       0.018119
 5851 Fit       0.016629
 5852 Fit       0.014775
 5853 Fit       0.004930
 5854 Fit       0.009090
 5855 Fit       0.012511
 5856 Fit       0.015264
 5857 Fit       0.017410
 5858 Fit       0.018997
 5859 Fit       0.020065
 5860 Fit       0.020643
 5861 Fit       0.020757
 5862 Fit       0.020429
 5863 Fit       0.019682
 5864 Fit       0.018546
 5865 Fit       0.017071
 5866 Fit       0.006923
 5867 Fit       0.010829
 5868 Fit       0.014020
 5869 Fit       0.016552
 5870 Fit       0.018478
 5871 Fit       0.019838
 5872 Fit       0.020670
 5873 Fit       0.021004
 5874 Fit       0.020869
 5875 Fit       0.020296
 5876 Fit       0.019325
 5877 Fit       0.018027
 5878 Fit       0.008825
 5879 Fit       0.012357
 5880 Fit       0.015228
 5881 Fit       0.017470
 5882 Fit       0.019119
 5883 Fit       0.020209
 5884 Fit       0.020773
 5885 Fit       0.020843
 5886 Fit       0.020451
 5887 Fit       0.019644
 5888 Fit       0.007817
 5889 Fit       0.011537
 5890 Fit       0.014606
 5891 Fit       0.017001
 5892 Fit       0.018735
 5893 Fit       0.019832
 5894 Fit       0.020326
 5895 Fit       0.020252
 5896 Fit       0.010779
 5897 Fit       0.013878
 5898 Fit       0.016339
 5899 Fit       0.018098
 5900 Fit       0.019145
 5901 Fit       0.019500
 -----------------------------------------------------------------
 Leave Link  602 at Mon May  1 18:02:59 2017, MaxMem=   33554432 cpu:       1.1

 Test job not archived.
 1\1\GINC-N0286\FOpt\RHF\6-31G(d)\C5H12O3\JSMITH07\01-May-2017\0\\#HF/6
 -31G* SCF=tight Test Pop=MK iop(6/33=2) NoSymm iop(6/42=6) opt\\remark
  line goes here\\0,1\C,-3.8878054657,1.084372878,0.0162910836\H,-3.492
 1721365,0.0803502467,0.0828995926\H,-3.5310136117,1.543935848,-0.90337
 85104\H,-4.9742012163,1.0337290357,-0.0220201665\O,-3.4503528821,1.784
 0368018,1.1376428561\C,-3.8843380133,3.107664832,1.1931338383\H,-4.971
 1842925,3.1616243797,1.2059338349\H,-3.53435613,3.6694661396,0.3293036
 919\C,-3.3280680395,3.7216057248,2.4605417111\H,-2.2418871328,3.668903
 2316,2.4476494201\H,-3.6785777148,3.1612036382,3.3241533088\O,-3.76242
 66235,5.0467302435,2.5161360919\C,-3.3296769687,5.7569368995,3.6367258
 899\H,-2.2435120529,5.7964791119,3.6770337586\H,-3.6802883893,5.288745
 3714,4.5536838573\C,-3.8866245153,7.1608370026,3.5370337976\H,-3.53431
 42612,7.6228798911,2.618725072\H,-4.971557702,7.114970742,3.495638697\
 O,-3.4443340101,7.8623821437,4.6682759026\H,-3.7729261219,8.7493677681
 ,4.6432701125\\Version=EM64L-G09RevA.02\HF=-420.8665059\RMSD=7.754e-09
 \RMSF=3.756e-05\Dipole=-0.4102433,0.2773128,-0.5115024\Quadrupole=1.51
 31179,7.062328,-8.5754459,-6.2588566,0.8861763,-0.8547217\PG=C01 [X(C5
 H12O3)]\\@


 Fatherhood is pretending the present you love most is soap-on-a-rope.
 -- Bill Cosby
 Job cpu time:  0 days  0 hours  1 minutes 55.7 seconds.
 File lengths (MBytes):  RWF=    142 Int=      0 D2E=      0 Chk=      4 Scr=      4
 Normal termination of Gaussian 09 at Mon May  1 18:02:59 2017.
