 Entering Gaussian System, Link 0=g09
 Input=PEG.com
 Output=PEG.log
 Initial command:
 /gscratch/pfaendtner/codes/G09/g09/l1.exe /gscratch/pfaendtner/josh/gaussian/Gau-18743.inp -scrdir=/gscratch/pfaendtner/josh/gaussian/
 Entering Link 1 = /gscratch/pfaendtner/codes/G09/g09/l1.exe PID=     18748.
  
 Copyright (c) 1988,1990,1992,1993,1995,1998,2003,2009, Gaussian, Inc.
                  All Rights Reserved.
  
 This is part of the Gaussian(R) 09 program.  It is based on
 the Gaussian(R) 03 system (copyright 2003, Gaussian, Inc.),
 the Gaussian(R) 98 system (copyright 1998, Gaussian, Inc.),
 the Gaussian(R) 94 system (copyright 1995, Gaussian, Inc.),
 the Gaussian 92(TM) system (copyright 1992, Gaussian, Inc.),
 the Gaussian 90(TM) system (copyright 1990, Gaussian, Inc.),
 the Gaussian 88(TM) system (copyright 1988, Gaussian, Inc.),
 the Gaussian 86(TM) system (copyright 1986, Carnegie Mellon
 University), and the Gaussian 82(TM) system (copyright 1983,
 Carnegie Mellon University). Gaussian is a federally registered
 trademark of Gaussian, Inc.
  
 This software contains proprietary and confidential information,
 including trade secrets, belonging to Gaussian, Inc.
  
 This software is provided under written license and may be
 used, copied, transmitted, or stored only in accord with that
 written license.
  
 The following legend is applicable only to US Government
 contracts under FAR:
  
                    RESTRICTED RIGHTS LEGEND
  
 Use, reproduction and disclosure by the US Government is
 subject to restrictions as set forth in subparagraphs (a)
 and (c) of the Commercial Computer Software - Restricted
 Rights clause in FAR 52.227-19.
  
 Gaussian, Inc.
 340 Quinnipiac St., Bldg. 40, Wallingford CT 06492
  
  
 ---------------------------------------------------------------
 Warning -- This program may not be used in any manner that
 competes with the business of Gaussian, Inc. or will provide
 assistance to any competitor of Gaussian, Inc.  The licensee
 of this program is prohibited from giving any competitor of
 Gaussian, Inc. access to this program.  By using this program,
 the user acknowledges that Gaussian, Inc. is engaged in the
 business of creating and licensing software in the field of
 computational chemistry and represents and warrants to the
 licensee that it is not a competitor of Gaussian, Inc. and that
 it will not use this program in any manner prohibited above.
 ---------------------------------------------------------------
  

 Cite this work as:
 Gaussian 09, Revision A.02,
 M. J. Frisch, G. W. Trucks, H. B. Schlegel, G. E. Scuseria, 
 M. A. Robb, J. R. Cheeseman, G. Scalmani, V. Barone, B. Mennucci, 
 G. A. Petersson, H. Nakatsuji, M. Caricato, X. Li, H. P. Hratchian, 
 A. F. Izmaylov, J. Bloino, G. Zheng, J. L. Sonnenberg, M. Hada, 
 M. Ehara, K. Toyota, R. Fukuda, J. Hasegawa, M. Ishida, T. Nakajima, 
 Y. Honda, O. Kitao, H. Nakai, T. Vreven, J. A. Montgomery, Jr., 
 J. E. Peralta, F. Ogliaro, M. Bearpark, J. J. Heyd, E. Brothers, 
 K. N. Kudin, V. N. Staroverov, R. Kobayashi, J. Normand, 
 K. Raghavachari, A. Rendell, J. C. Burant, S. S. Iyengar, J. Tomasi, 
 M. Cossi, N. Rega, J. M. Millam, M. Klene, J. E. Knox, J. B. Cross, 
 V. Bakken, C. Adamo, J. Jaramillo, R. Gomperts, R. E. Stratmann, 
 O. Yazyev, A. J. Austin, R. Cammi, C. Pomelli, J. W. Ochterski, 
 R. L. Martin, K. Morokuma, V. G. Zakrzewski, G. A. Voth, 
 P. Salvador, J. J. Dannenberg, S. Dapprich, A. D. Daniels, 
 O. Farkas, J. B. Foresman, J. V. Ortiz, J. Cioslowski, 
 and D. J. Fox, Gaussian, Inc., Wallingford CT, 2009.
 
 ******************************************
 Gaussian 09:  EM64L-G09RevA.02 11-Jun-2009
                 2-May-2017 
 ******************************************
 %chk=molecule
 -------------------------------------------------------------------
 #HF/6-31G* SCF=tight Test Pop=MK iop(6/33=2) NoSymm iop(6/42=6) opt
 -------------------------------------------------------------------
 1/18=20,19=15,38=1/1,3;
 2/9=110,12=2,15=1,17=6,18=5,40=1/2;
 3/5=1,6=6,7=1,11=9,16=1,25=1,30=1,71=1/1,2,3;
 4//1;
 5/5=2,32=2,38=5/2;
 6/7=2,8=2,9=2,10=2,15=8,20=1,28=1,33=2,42=6/1,2;
 7/30=1/1,2,3,16;
 1/18=20,19=15/3(2);
 2/9=110,15=1/2;
 99//99;
 2/9=110,15=1/2;
 3/5=1,6=6,7=1,11=9,16=1,25=1,30=1,71=1/1,2,3;
 4/5=5,16=3/1;
 5/5=2,32=2,38=5/2;
 7/30=1/1,2,3,16;
 1/18=20,19=15/3(-5);
 2/9=110,15=1/2;
 6/7=2,8=2,9=2,10=2,15=8,19=2,20=1,28=1,33=2,42=6/1,2;
 99/9=1/99;
 ---------------------
 remark line goes here
 ---------------------
 Symbolic Z-matrix:
 Charge =  0 Multiplicity = 1
 C                    -3.87097   1.00979  -0.00036 
 H                    -3.51456   0.00089  -0.00058 
 H                    -3.51282   1.51476  -0.87307 
 H                    -4.94097   1.01006  -0.00202 
 O                    -3.39594   1.68288   1.16848 
 C                    -3.87227   3.03122   1.16877 
 H                    -4.94227   3.03149   1.16711 
 H                    -3.51412   3.5362    0.29606 
 C                    -3.3607    3.75609   2.42752 
 H                    -2.2907    3.75582   2.42918 
 H                    -3.71885   3.25111   3.30023 
 O                    -3.83703   5.10443   2.42781 
 C                    -3.362     5.77753   3.59665 
 H                    -2.292     5.77726   3.59831 
 H                    -3.72015   5.27255   4.46937 
 C                    -3.87497   7.22958   3.59697 
 H                    -3.51682   7.73456   2.72425 
 H                    -4.94496   7.22985   3.59531 
 O                    -3.39994   7.90268   4.76581 
 C                    -3.87627   9.25102   4.7661 
 H                    -4.94626   9.25129   4.76444 
 H                    -3.51812   9.756     3.89339 
 C                    -3.3647    9.97589   6.02485 
 H                    -2.2947    9.97562   6.02651 
 H                    -3.72285   9.47091   6.89756 
 O                    -3.84102   11.32423   6.02514 
 C                    -3.366     11.99732   7.19398 
 H                    -2.296     11.99705   7.19564 
 H                    -3.72414   11.49234   8.0667 
 C                    -3.87897   13.44938   7.1943 
 H                    -3.52066   13.95463   6.32181 
 H                    -4.94897   13.44991   7.1926 
 O                    -3.40382   14.12187   8.36344 
 C                    -3.87941   15.47047   8.36486 
 H                    -4.94941   15.47132   8.36326 
 H                    -3.52104   15.97596   7.49254 
 C                    -3.36739   16.19403   9.62418 
 H                    -2.29739   16.19317   9.62578 
 H                    -3.72576   15.68853   10.49649 
 O                    -3.84298   17.54262   9.6256 
 C                    -3.36785   18.21511   10.79475 
 H                    -2.29785   18.21453   10.79648 
 H                    -3.7262    17.70988   11.66723 
 C                    -3.88039   19.66731   10.79561 
 H                    -4.95039   19.66789   10.79385 
 H                    -3.52202   20.17255   9.92314 
 O                    -3.40528   20.33979   11.96477 
 H                    -3.72455   21.24515   11.96572 
 

 GradGradGradGradGradGradGradGradGradGradGradGradGradGradGradGradGradGrad
 Berny optimization.
 Initialization pass.
                           ----------------------------
                           !    Initial Parameters    !
                           ! (Angstroms and Degrees)  !
 --------------------------                            --------------------------
 ! Name  Definition              Value          Derivative Info.                !
 --------------------------------------------------------------------------------
 ! R1    R(1,2)                  1.07           estimate D2E/DX2                !
 ! R2    R(1,3)                  1.07           estimate D2E/DX2                !
 ! R3    R(1,4)                  1.07           estimate D2E/DX2                !
 ! R4    R(1,5)                  1.43           estimate D2E/DX2                !
 ! R5    R(5,6)                  1.43           estimate D2E/DX2                !
 ! R6    R(6,7)                  1.07           estimate D2E/DX2                !
 ! R7    R(6,8)                  1.07           estimate D2E/DX2                !
 ! R8    R(6,9)                  1.54           estimate D2E/DX2                !
 ! R9    R(9,10)                 1.07           estimate D2E/DX2                !
 ! R10   R(9,11)                 1.07           estimate D2E/DX2                !
 ! R11   R(9,12)                 1.43           estimate D2E/DX2                !
 ! R12   R(12,13)                1.43           estimate D2E/DX2                !
 ! R13   R(13,14)                1.07           estimate D2E/DX2                !
 ! R14   R(13,15)                1.07           estimate D2E/DX2                !
 ! R15   R(13,16)                1.54           estimate D2E/DX2                !
 ! R16   R(16,17)                1.07           estimate D2E/DX2                !
 ! R17   R(16,18)                1.07           estimate D2E/DX2                !
 ! R18   R(16,19)                1.43           estimate D2E/DX2                !
 ! R19   R(19,20)                1.43           estimate D2E/DX2                !
 ! R20   R(20,21)                1.07           estimate D2E/DX2                !
 ! R21   R(20,22)                1.07           estimate D2E/DX2                !
 ! R22   R(20,23)                1.54           estimate D2E/DX2                !
 ! R23   R(23,24)                1.07           estimate D2E/DX2                !
 ! R24   R(23,25)                1.07           estimate D2E/DX2                !
 ! R25   R(23,26)                1.43           estimate D2E/DX2                !
 ! R26   R(26,27)                1.43           estimate D2E/DX2                !
 ! R27   R(27,28)                1.07           estimate D2E/DX2                !
 ! R28   R(27,29)                1.07           estimate D2E/DX2                !
 ! R29   R(27,30)                1.54           estimate D2E/DX2                !
 ! R30   R(30,31)                1.07           estimate D2E/DX2                !
 ! R31   R(30,32)                1.07           estimate D2E/DX2                !
 ! R32   R(30,33)                1.43           estimate D2E/DX2                !
 ! R33   R(33,34)                1.43           estimate D2E/DX2                !
 ! R34   R(34,35)                1.07           estimate D2E/DX2                !
 ! R35   R(34,36)                1.07           estimate D2E/DX2                !
 ! R36   R(34,37)                1.54           estimate D2E/DX2                !
 ! R37   R(37,38)                1.07           estimate D2E/DX2                !
 ! R38   R(37,39)                1.07           estimate D2E/DX2                !
 ! R39   R(37,40)                1.43           estimate D2E/DX2                !
 ! R40   R(40,41)                1.43           estimate D2E/DX2                !
 ! R41   R(41,42)                1.07           estimate D2E/DX2                !
 ! R42   R(41,43)                1.07           estimate D2E/DX2                !
 ! R43   R(41,44)                1.54           estimate D2E/DX2                !
 ! R44   R(44,45)                1.07           estimate D2E/DX2                !
 ! R45   R(44,46)                1.07           estimate D2E/DX2                !
 ! R46   R(44,47)                1.43           estimate D2E/DX2                !
 ! R47   R(47,48)                0.96           estimate D2E/DX2                !
 ! A1    A(2,1,3)              109.4712         estimate D2E/DX2                !
 ! A2    A(2,1,4)              109.4712         estimate D2E/DX2                !
 ! A3    A(2,1,5)              109.4712         estimate D2E/DX2                !
 ! A4    A(3,1,4)              109.4712         estimate D2E/DX2                !
 ! A5    A(3,1,5)              109.4712         estimate D2E/DX2                !
 ! A6    A(4,1,5)              109.4712         estimate D2E/DX2                !
 ! A7    A(1,5,6)              109.4712         estimate D2E/DX2                !
 ! A8    A(5,6,7)              109.4712         estimate D2E/DX2                !
 ! A9    A(5,6,8)              109.4712         estimate D2E/DX2                !
 ! A10   A(5,6,9)              109.4712         estimate D2E/DX2                !
 ! A11   A(7,6,8)              109.4712         estimate D2E/DX2                !
 ! A12   A(7,6,9)              109.4712         estimate D2E/DX2                !
 ! A13   A(8,6,9)              109.4712         estimate D2E/DX2                !
 ! A14   A(6,9,10)             109.4712         estimate D2E/DX2                !
 ! A15   A(6,9,11)             109.4712         estimate D2E/DX2                !
 ! A16   A(6,9,12)             109.4712         estimate D2E/DX2                !
 ! A17   A(10,9,11)            109.4712         estimate D2E/DX2                !
 ! A18   A(10,9,12)            109.4712         estimate D2E/DX2                !
 ! A19   A(11,9,12)            109.4712         estimate D2E/DX2                !
 ! A20   A(9,12,13)            109.4712         estimate D2E/DX2                !
 ! A21   A(12,13,14)           109.4712         estimate D2E/DX2                !
 ! A22   A(12,13,15)           109.4712         estimate D2E/DX2                !
 ! A23   A(12,13,16)           109.4712         estimate D2E/DX2                !
 ! A24   A(14,13,15)           109.4712         estimate D2E/DX2                !
 ! A25   A(14,13,16)           109.4712         estimate D2E/DX2                !
 ! A26   A(15,13,16)           109.4712         estimate D2E/DX2                !
 ! A27   A(13,16,17)           109.4712         estimate D2E/DX2                !
 ! A28   A(13,16,18)           109.4712         estimate D2E/DX2                !
 ! A29   A(13,16,19)           109.4712         estimate D2E/DX2                !
 ! A30   A(17,16,18)           109.4712         estimate D2E/DX2                !
 ! A31   A(17,16,19)           109.4712         estimate D2E/DX2                !
 ! A32   A(18,16,19)           109.4712         estimate D2E/DX2                !
 ! A33   A(16,19,20)           109.4712         estimate D2E/DX2                !
 ! A34   A(19,20,21)           109.4712         estimate D2E/DX2                !
 ! A35   A(19,20,22)           109.4712         estimate D2E/DX2                !
 ! A36   A(19,20,23)           109.4712         estimate D2E/DX2                !
 ! A37   A(21,20,22)           109.4712         estimate D2E/DX2                !
 ! A38   A(21,20,23)           109.4712         estimate D2E/DX2                !
 ! A39   A(22,20,23)           109.4712         estimate D2E/DX2                !
 ! A40   A(20,23,24)           109.4712         estimate D2E/DX2                !
 ! A41   A(20,23,25)           109.4712         estimate D2E/DX2                !
 ! A42   A(20,23,26)           109.4712         estimate D2E/DX2                !
 ! A43   A(24,23,25)           109.4712         estimate D2E/DX2                !
 ! A44   A(24,23,26)           109.4712         estimate D2E/DX2                !
 ! A45   A(25,23,26)           109.4712         estimate D2E/DX2                !
 ! A46   A(23,26,27)           109.4712         estimate D2E/DX2                !
 ! A47   A(26,27,28)           109.4712         estimate D2E/DX2                !
 ! A48   A(26,27,29)           109.4712         estimate D2E/DX2                !
 ! A49   A(26,27,30)           109.4712         estimate D2E/DX2                !
 ! A50   A(28,27,29)           109.4712         estimate D2E/DX2                !
 ! A51   A(28,27,30)           109.4713         estimate D2E/DX2                !
 ! A52   A(29,27,30)           109.4712         estimate D2E/DX2                !
 ! A53   A(27,30,31)           109.483          estimate D2E/DX2                !
 ! A54   A(27,30,32)           109.4854         estimate D2E/DX2                !
 ! A55   A(27,30,33)           109.4452         estimate D2E/DX2                !
 ! A56   A(31,30,32)           109.4713         estimate D2E/DX2                !
 ! A57   A(31,30,33)           109.4712         estimate D2E/DX2                !
 ! A58   A(32,30,33)           109.4712         estimate D2E/DX2                !
 ! A59   A(30,33,34)           109.5            estimate D2E/DX2                !
 ! A60   A(33,34,35)           109.4712         estimate D2E/DX2                !
 ! A61   A(33,34,36)           109.4712         estimate D2E/DX2                !
 ! A62   A(33,34,37)           109.4712         estimate D2E/DX2                !
 ! A63   A(35,34,36)           109.4712         estimate D2E/DX2                !
 ! A64   A(35,34,37)           109.4713         estimate D2E/DX2                !
 ! A65   A(36,34,37)           109.4712         estimate D2E/DX2                !
 ! A66   A(34,37,38)           109.4712         estimate D2E/DX2                !
 ! A67   A(34,37,39)           109.4712         estimate D2E/DX2                !
 ! A68   A(34,37,40)           109.4712         estimate D2E/DX2                !
 ! A69   A(38,37,39)           109.4712         estimate D2E/DX2                !
 ! A70   A(38,37,40)           109.4713         estimate D2E/DX2                !
 ! A71   A(39,37,40)           109.4712         estimate D2E/DX2                !
 ! A72   A(37,40,41)           109.5            estimate D2E/DX2                !
 ! A73   A(40,41,42)           109.4712         estimate D2E/DX2                !
 ! A74   A(40,41,43)           109.4712         estimate D2E/DX2                !
 ! A75   A(40,41,44)           109.4712         estimate D2E/DX2                !
 ! A76   A(42,41,43)           109.4712         estimate D2E/DX2                !
 ! A77   A(42,41,44)           109.4713         estimate D2E/DX2                !
 ! A78   A(43,41,44)           109.4712         estimate D2E/DX2                !
 ! A79   A(41,44,45)           109.4712         estimate D2E/DX2                !
 ! A80   A(41,44,46)           109.4712         estimate D2E/DX2                !
 ! A81   A(41,44,47)           109.4712         estimate D2E/DX2                !
 ! A82   A(45,44,46)           109.4712         estimate D2E/DX2                !
 ! A83   A(45,44,47)           109.4713         estimate D2E/DX2                !
 ! A84   A(46,44,47)           109.4712         estimate D2E/DX2                !
 ! A85   A(44,47,48)           109.5            estimate D2E/DX2                !
 ! D1    D(2,1,5,6)            180.0            estimate D2E/DX2                !
 ! D2    D(3,1,5,6)             60.0            estimate D2E/DX2                !
 ! D3    D(4,1,5,6)            -60.0            estimate D2E/DX2                !
 ! D4    D(1,5,6,7)             60.0            estimate D2E/DX2                !
 ! D5    D(1,5,6,8)            -60.0            estimate D2E/DX2                !
 ! D6    D(1,5,6,9)            180.0            estimate D2E/DX2                !
 ! D7    D(5,6,9,10)            60.0            estimate D2E/DX2                !
 ! D8    D(5,6,9,11)           -60.0            estimate D2E/DX2                !
 ! D9    D(5,6,9,12)          -180.0            estimate D2E/DX2                !
 ! D10   D(7,6,9,10)           180.0            estimate D2E/DX2                !
 ! D11   D(7,6,9,11)            60.0            estimate D2E/DX2                !
 ! D12   D(7,6,9,12)           -60.0            estimate D2E/DX2                !
 ! D13   D(8,6,9,10)           -60.0            estimate D2E/DX2                !
 ! D14   D(8,6,9,11)           180.0            estimate D2E/DX2                !
 ! D15   D(8,6,9,12)            60.0            estimate D2E/DX2                !
 ! D16   D(6,9,12,13)          180.0            estimate D2E/DX2                !
 ! D17   D(10,9,12,13)         -60.0            estimate D2E/DX2                !
 ! D18   D(11,9,12,13)          60.0            estimate D2E/DX2                !
 ! D19   D(9,12,13,14)          60.0            estimate D2E/DX2                !
 ! D20   D(9,12,13,15)         -60.0            estimate D2E/DX2                !
 ! D21   D(9,12,13,16)         180.0            estimate D2E/DX2                !
 ! D22   D(12,13,16,17)        -60.0            estimate D2E/DX2                !
 ! D23   D(12,13,16,18)         60.0            estimate D2E/DX2                !
 ! D24   D(12,13,16,19)        180.0            estimate D2E/DX2                !
 ! D25   D(14,13,16,17)         60.0            estimate D2E/DX2                !
 ! D26   D(14,13,16,18)       -180.0            estimate D2E/DX2                !
 ! D27   D(14,13,16,19)        -60.0            estimate D2E/DX2                !
 ! D28   D(15,13,16,17)       -180.0            estimate D2E/DX2                !
 ! D29   D(15,13,16,18)        -60.0            estimate D2E/DX2                !
 ! D30   D(15,13,16,19)         60.0            estimate D2E/DX2                !
 ! D31   D(13,16,19,20)        180.0            estimate D2E/DX2                !
 ! D32   D(17,16,19,20)         60.0            estimate D2E/DX2                !
 ! D33   D(18,16,19,20)        -60.0            estimate D2E/DX2                !
 ! D34   D(16,19,20,21)         60.0            estimate D2E/DX2                !
 ! D35   D(16,19,20,22)        -60.0            estimate D2E/DX2                !
 ! D36   D(16,19,20,23)        180.0            estimate D2E/DX2                !
 ! D37   D(19,20,23,24)         60.0            estimate D2E/DX2                !
 ! D38   D(19,20,23,25)        -60.0            estimate D2E/DX2                !
 ! D39   D(19,20,23,26)       -180.0            estimate D2E/DX2                !
 ! D40   D(21,20,23,24)        180.0            estimate D2E/DX2                !
 ! D41   D(21,20,23,25)         60.0            estimate D2E/DX2                !
 ! D42   D(21,20,23,26)        -60.0            estimate D2E/DX2                !
 ! D43   D(22,20,23,24)        -60.0            estimate D2E/DX2                !
 ! D44   D(22,20,23,25)        180.0            estimate D2E/DX2                !
 ! D45   D(22,20,23,26)         60.0            estimate D2E/DX2                !
 ! D46   D(20,23,26,27)        180.0            estimate D2E/DX2                !
 ! D47   D(24,23,26,27)        -60.0            estimate D2E/DX2                !
 ! D48   D(25,23,26,27)         60.0            estimate D2E/DX2                !
 ! D49   D(23,26,27,28)         60.0001         estimate D2E/DX2                !
 ! D50   D(23,26,27,29)        -59.9999         estimate D2E/DX2                !
 ! D51   D(23,26,27,30)       -179.9999         estimate D2E/DX2                !
 ! D52   D(26,27,30,31)        -60.0182         estimate D2E/DX2                !
 ! D53   D(26,27,30,32)         59.9978         estimate D2E/DX2                !
 ! D54   D(26,27,30,33)        179.9905         estimate D2E/DX2                !
 ! D55   D(28,27,30,31)         59.9818         estimate D2E/DX2                !
 ! D56   D(28,27,30,32)        179.9977         estimate D2E/DX2                !
 ! D57   D(28,27,30,33)        -60.0095         estimate D2E/DX2                !
 ! D58   D(29,27,30,31)        179.9818         estimate D2E/DX2                !
 ! D59   D(29,27,30,32)        -60.0022         estimate D2E/DX2                !
 ! D60   D(29,27,30,33)         59.9905         estimate D2E/DX2                !
 ! D61   D(27,30,33,34)        179.9952         estimate D2E/DX2                !
 ! D62   D(31,30,33,34)         59.9967         estimate D2E/DX2                !
 ! D63   D(32,30,33,34)        -60.0033         estimate D2E/DX2                !
 ! D64   D(30,33,34,35)         59.9982         estimate D2E/DX2                !
 ! D65   D(30,33,34,36)        -60.0018         estimate D2E/DX2                !
 ! D66   D(30,33,34,37)        179.9982         estimate D2E/DX2                !
 ! D67   D(33,34,37,38)         59.9999         estimate D2E/DX2                !
 ! D68   D(33,34,37,39)        -60.0001         estimate D2E/DX2                !
 ! D69   D(33,34,37,40)        179.9999         estimate D2E/DX2                !
 ! D70   D(35,34,37,38)        179.9999         estimate D2E/DX2                !
 ! D71   D(35,34,37,39)         59.9999         estimate D2E/DX2                !
 ! D72   D(35,34,37,40)        -60.0001         estimate D2E/DX2                !
 ! D73   D(36,34,37,38)        -60.0001         estimate D2E/DX2                !
 ! D74   D(36,34,37,39)        179.9999         estimate D2E/DX2                !
 ! D75   D(36,34,37,40)         59.9999         estimate D2E/DX2                !
 ! D76   D(34,37,40,41)       -179.999          estimate D2E/DX2                !
 ! D77   D(38,37,40,41)        -59.9991         estimate D2E/DX2                !
 ! D78   D(39,37,40,41)         60.001          estimate D2E/DX2                !
 ! D79   D(37,40,41,42)         60.0003         estimate D2E/DX2                !
 ! D80   D(37,40,41,43)        -59.9997         estimate D2E/DX2                !
 ! D81   D(37,40,41,44)       -179.9997         estimate D2E/DX2                !
 ! D82   D(40,41,44,45)         59.9989         estimate D2E/DX2                !
 ! D83   D(40,41,44,46)        -60.0011         estimate D2E/DX2                !
 ! D84   D(40,41,44,47)        179.9989         estimate D2E/DX2                !
 ! D85   D(42,41,44,45)        179.9989         estimate D2E/DX2                !
 ! D86   D(42,41,44,46)         59.9989         estimate D2E/DX2                !
 ! D87   D(42,41,44,47)        -60.0011         estimate D2E/DX2                !
 ! D88   D(43,41,44,45)        -60.0011         estimate D2E/DX2                !
 ! D89   D(43,41,44,46)        179.9989         estimate D2E/DX2                !
 ! D90   D(43,41,44,47)         59.9989         estimate D2E/DX2                !
 ! D91   D(41,44,47,48)        179.9991         estimate D2E/DX2                !
 ! D92   D(45,44,47,48)        -60.0009         estimate D2E/DX2                !
 ! D93   D(46,44,47,48)         59.9991         estimate D2E/DX2                !
 --------------------------------------------------------------------------------
 Trust Radius=3.00D-01 FncErr=1.00D-07 GrdErr=1.00D-07
 Number of steps in this run= 235 maximum allowed number of steps= 288.
 GradGradGradGradGradGradGradGradGradGradGradGradGradGradGradGradGradGrad

                          Input orientation:                          
 ---------------------------------------------------------------------
 Center     Atomic      Atomic             Coordinates (Angstroms)
 Number     Number       Type             X           Y           Z
 ---------------------------------------------------------------------
      1          6           0       -3.870968    1.009786   -0.000362
      2          1           0       -3.514556    0.000890   -0.000580
      3          1           0       -3.512821    1.514765   -0.873075
      4          1           0       -4.940967    1.010057   -0.002020
      5          8           0       -3.395941    1.682883    1.168479
      6          6           0       -3.872267    3.031220    1.168770
      7          1           0       -4.942266    3.031491    1.167112
      8          1           0       -3.514120    3.536199    0.296057
      9          6           0       -3.360700    3.756093    2.427522
     10          1           0       -2.290702    3.755822    2.429180
     11          1           0       -3.718847    3.251114    3.300234
     12          8           0       -3.837026    5.104430    2.427813
     13          6           0       -3.362000    5.777527    3.596654
     14          1           0       -2.292001    5.777256    3.598312
     15          1           0       -3.720147    5.272548    4.469366
     16          6           0       -3.874966    7.229583    3.596967
     17          1           0       -3.516819    7.734561    2.724255
     18          1           0       -4.944965    7.229854    3.595309
     19          8           0       -3.399939    7.902679    4.765808
     20          6           0       -3.876266    9.251017    4.766099
     21          1           0       -4.946264    9.251288    4.764441
     22          1           0       -3.518118    9.755995    3.893387
     23          6           0       -3.364698    9.975890    6.024851
     24          1           0       -2.294700    9.975619    6.026509
     25          1           0       -3.722846    9.470911    6.897564
     26          8           0       -3.841024   11.324227    6.025142
     27          6           0       -3.365998   11.997324    7.193983
     28          1           0       -2.295999   11.997054    7.195640
     29          1           0       -3.724143   11.492344    8.066696
     30          6           0       -3.878967   13.449378    7.194297
     31          1           0       -3.520664   13.954634    6.321809
     32          1           0       -4.948966   13.449912    7.192601
     33          8           0       -3.403818   14.121870    8.363437
     34          6           0       -3.879412   15.470465    8.364858
     35          1           0       -4.949411   15.471318    8.363256
     36          1           0       -3.521037   15.975965    7.492541
     37          6           0       -3.367386   16.194029    9.624177
     38          1           0       -2.297387   16.193174    9.625779
     39          1           0       -3.725762   15.688530   10.496494
     40          8           0       -3.842979   17.542624    9.625597
     41          6           0       -3.367846   18.215110   10.794746
     42          1           0       -2.297847   18.214530   10.796484
     43          1           0       -3.726204   17.709881   11.667228
     44          6           0       -3.880394   19.667313   10.795609
     45          1           0       -4.950393   19.667893   10.793853
     46          1           0       -3.522021   20.172547    9.923137
     47          8           0       -3.405281   20.339792   11.964771
     48          1           0       -3.724553   21.245145   11.965720
 ---------------------------------------------------------------------
                    Distance matrix (angstroms):
                    1          2          3          4          5
     1  C    0.000000
     2  H    1.070000   0.000000
     3  H    1.070000   1.747303   0.000000
     4  H    1.070000   1.747303   1.747303   0.000000
     5  O    1.430000   2.051796   2.051796   2.051796   0.000000
     6  C    2.335180   3.267757   2.568651   2.568651   1.430000
     7  H    2.568651   3.547732   2.916528   2.335180   2.051796
     8  H    2.568651   3.547732   2.335180   2.916528   2.051796
     9  C    3.700973   4.474472   3.992572   3.992572   2.425826
    10  H    3.992572   4.636924   4.173823   4.524806   2.666083
    11  H    3.992572   4.636924   4.524806   4.173823   2.666083
    12  O    4.760599   5.661025   4.887399   4.887399   3.672529
    13  C    5.994075   6.806827   6.178379   6.178379   4.760599
    14  H    6.178379   6.914699   6.297026   6.534952   4.887399
    15  H    6.178379   6.914699   6.534952   6.297026   4.887399
    16  C    7.185170   8.082465   7.264404   7.264404   6.073953
    17  H    7.264404   8.199659   7.185170   7.394575   6.249629
    18  H    7.264404   8.199659   7.394575   7.185170   6.249629
    19  O    8.393464   9.228752   8.521455   8.521455   7.185170
    20  C    9.520350  10.412344   9.580291   9.580291   8.393464
    21  H    9.580291  10.503574   9.679366   9.520350   8.521455
    22  H    9.580291  10.503574   9.520350   9.679366   8.521455
    23  C   10.814367  11.654566  10.917599  10.917599   9.610375
    24  H   10.917599  11.717895  10.985178  11.123273   9.673813
    25  H   10.917599  11.717895  11.123273  10.985178   9.673813
    26  O   11.945514  12.830973  11.996611  11.996611  10.804666
    27  C   13.143044  13.989218  13.228115  13.228115  11.945514
    28  H   13.228116  14.042023  13.283946  13.398369  11.996611
    29  H   13.228114  14.042022  13.398367  13.283945  11.996610
    30  C   14.370340  15.256503  14.410120  14.410120  13.228538
    31  H   14.410470  15.319256  14.370691  14.476538  13.310456
    32  H   14.410328  15.319125  14.476374  14.370548  13.310332
    33  O   15.559503  16.412530  15.628952  15.628927  14.369965
    34  C   16.705934  17.590379  16.740232  16.740220  15.560175
    35  H   16.740641  17.645019  16.797588  16.706465  15.630068
    36  H   16.740746  17.645110  16.706583  16.797710  15.630151
    37  C   17.984621  18.838135  18.047001  18.046962  16.795029
    38  H   18.046441  18.876926  18.087535  18.171683  16.830963
    39  H   18.046346  18.876843  18.171628  18.087374  16.830888
    40  O   19.130986  20.012085  19.163073  19.163047  17.979268
    41  C   20.317743  21.173531  20.373036  20.372990  19.130613
    42  H   20.372771  21.208339  20.409236  20.483839  19.162454
    43  H   20.372697  21.208274  20.483811  20.409094  19.162398
    44  C   21.555890  22.437908  21.582593  21.582558  20.404805
    45  H   21.582520  22.480489  21.626832  21.556108  20.457877
    46  H   21.582610  22.480569  21.556232  21.626909  20.457948
    47  O   22.738303  23.597722  22.786037  22.785984  21.555516
    48  H   23.509112  24.383494  23.540760  23.540715  22.346600
                    6          7          8          9         10
     6  C    0.000000
     7  H    1.070000   0.000000
     8  H    1.070000   1.747303   0.000000
     9  C    1.540000   2.148263   2.148263   0.000000
    10  H    2.148263   3.024610   2.468846   1.070000   0.000000
    11  H    2.148263   2.468846   3.024610   1.070000   1.747303
    12  O    2.425826   2.666083   2.666083   1.430000   2.051796
    13  C    3.700973   3.992572   3.992572   2.335180   2.568651
    14  H    3.992572   4.524806   4.173823   2.568651   2.335180
    15  H    3.992572   4.173823   4.524806   2.568651   2.916528
    16  C    4.849990   4.966619   4.966619   3.700973   3.992572
    17  H    4.966619   5.155140   4.849990   3.992572   4.173823
    18  H    4.966619   4.849990   5.155140   3.992572   4.524806
    19  O    6.073953   6.249629   6.249629   4.760599   4.887399
    20  C    7.185170   7.264404   7.264404   5.994075   6.178379
    21  H    7.264404   7.185170   7.394575   6.178379   6.534952
    22  H    7.264404   7.394575   7.185170   6.178379   6.297026
    23  C    8.489264   8.620385   8.620385   7.185170   7.264404
    24  H    8.620385   8.879429   8.705814   7.264404   7.185170
    25  H    8.620385   8.705814   8.879429   7.264404   7.394575
    26  O    9.610375   9.673813   9.673813   8.393464   8.521455
    27  C   10.814367  10.917599  10.917599   9.520350   9.580291
    28  H   10.917600  11.123273  10.985178   9.580291   9.520351
    29  H   10.917598  10.985177  11.123272   9.580290   9.679365
    30  C   12.035159  12.082630  12.082631  10.814367  10.917599
    31  H   12.082980  12.161698  12.035511  10.917934  10.985496
    32  H   12.082838  12.035368  12.161530  10.917816  11.123486
    33  O   13.228198  13.309787  13.309817  11.945136  11.996224
    34  C   14.370754  14.410596  14.410611  13.143345  13.228346
    35  H   14.411000  14.371285  14.477114  13.228886  13.399061
    36  H   14.411102  14.477236  14.371403  13.228960  13.284699
    37  C   15.652743  15.724331  15.724376  14.369903  14.409588
    38  H   15.723813  15.867399  15.770960  14.409251  14.369370
    39  H   15.723721  15.770792  15.867352  14.409185  14.475167
    40  O   16.795822  16.832331  16.832362  15.559990  15.629264
    41  C   17.985116  18.047505  18.047557  16.705498  16.739592
    42  H   18.047287  18.172573  18.088440  16.739640  16.705270
    43  H   18.047217  18.088294  18.172555  16.739592  16.796367
    44  C   19.220710  19.250613  19.250652  17.985046  18.047155
    45  H   19.250544  19.220928  19.300211  18.047381  18.172388
    46  H   19.250630  19.300282  19.221052  18.047444  18.088240
    47  O   20.404862  20.457983  20.458042  19.130608  19.162407
    48  H   21.174112  21.209195  21.209245  19.924270  19.971929
                   11         12         13         14         15
    11  H    0.000000
    12  O    2.051796   0.000000
    13  C    2.568651   1.430000   0.000000
    14  H    2.916528   2.051796   1.070000   0.000000
    15  H    2.335180   2.051796   1.070000   1.747303   0.000000
    16  C    3.992572   2.425826   1.540000   2.148263   2.148263
    17  H    4.524806   2.666083   2.148263   2.468846   3.024610
    18  H    4.173823   2.666083   2.148263   3.024610   2.468846
    19  O    4.887399   3.672529   2.425826   2.666083   2.666083
    20  C    6.178379   4.760599   3.700973   3.992572   3.992572
    21  H    6.297026   4.887399   3.992572   4.524806   4.173823
    22  H    6.534952   4.887399   3.992572   4.173823   4.524806
    23  C    7.264404   6.073953   4.849990   4.966619   4.966619
    24  H    7.394575   6.249629   4.966619   4.849990   5.155140
    25  H    7.185170   6.249629   4.966619   5.155140   4.849990
    26  O    8.521455   7.185170   6.073953   6.249629   6.249629
    27  C    9.580291   8.393464   7.185170   7.264404   7.264404
    28  H    9.679367   8.521456   7.264405   7.185171   7.394576
    29  H    9.520349   8.521455   7.264403   7.394573   7.185169
    30  C   10.917598   9.610374   8.489264   8.620385   8.620384
    31  H   11.123602   9.674161   8.620714   8.706122   8.879749
    32  H   10.985408   9.674021   8.620603   8.879641   8.706049
    33  O   11.996191  10.804329   9.609997   9.673425   9.673384
    34  C   13.228330  11.945919  10.814644  10.917790  10.917771
    35  H   13.284647  11.997468  10.918331  11.123909  10.985826
    36  H   13.399119  11.997566  10.918396  10.985864  11.123954
    37  C   14.409539  13.228281  12.034723  12.082080  12.082022
    38  H   14.475150  13.309449  12.081782  12.034190  12.160300
    39  H   14.369255  13.309364  12.081725  12.160343  12.034075
    40  O   15.629231  14.370692  13.228643  13.310055  13.310017
    41  C   16.739536  15.560065  14.370318  14.409938  14.409873
    42  H   16.796333  15.629409  14.410031  14.370090  14.475850
    43  H   16.705166  15.629346  14.409992  14.475907  14.369986
    44  C   18.047114  16.795816  15.653109  15.724432  15.724385
    45  H   18.088163  16.832250  15.724659  15.867975  15.771448
    46  H   18.172410  16.832328  15.724713  15.771518  15.867982
    47  O   19.162344  17.979328  16.795440  16.831651  16.831579
    48  H   19.971876  18.748520  17.590336  17.644300  17.644239
                   16         17         18         19         20
    16  C    0.000000
    17  H    1.070000   0.000000
    18  H    1.070000   1.747303   0.000000
    19  O    1.430000   2.051796   2.051796   0.000000
    20  C    2.335180   2.568651   2.568651   1.430000   0.000000
    21  H    2.568651   2.916528   2.335180   2.051796   1.070000
    22  H    2.568651   2.335180   2.916528   2.051796   1.070000
    23  C    3.700973   3.992572   3.992572   2.425826   1.540000
    24  H    3.992572   4.173823   4.524806   2.666083   2.148263
    25  H    3.992572   4.524806   4.173823   2.666083   2.148263
    26  O    4.760599   4.887399   4.887399   3.672529   2.425826
    27  C    5.994075   6.178379   6.178379   4.760599   3.700973
    28  H    6.178379   6.297026   6.534953   4.887399   3.992573
    29  H    6.178378   6.534952   6.297025   4.887398   3.992572
    30  C    7.185170   7.264404   7.264403   6.073952   4.849989
    31  H    7.264751   7.185521   7.394937   6.249949   4.966961
    32  H    7.264610   7.394755   7.185378   6.249848   4.966822
    33  O    8.393143   8.521201   8.521155   7.184795   6.073653
    34  C    9.520764   9.580819   9.580797   8.393714   7.185584
    35  H    9.581135   9.680292   9.521296   8.522135   7.265213
    36  H    9.581230   9.521413   9.680416   8.522187   7.265301
    37  C   10.814166  10.917593  10.917529   9.609957   8.489128
    38  H   10.917019  10.984816  11.122830   9.673016   8.619913
    39  H   10.916937  11.122813  10.984626   9.672972   8.619841
    40  O   11.945887  11.997208  11.997165  10.804738   9.610753
    41  C   13.143326  13.228641  13.228570  11.945516  10.814715
    42  H   13.228356  13.284446  13.398778  11.996579  10.917944
    43  H   13.228299  13.398791  13.284285  11.996551  10.917897
    44  C   14.370721  14.410743  14.410691  13.228603  12.035541
    45  H   14.410526  14.476807  14.370938  13.310201  12.082999
    46  H   14.410598  14.371062  14.476861  13.310244  12.083061
    47  O   15.560152  15.629825  15.629747  14.370347  13.228894
    48  H   16.324664  16.370208  16.370143  15.164613  13.989878
                   21         22         23         24         25
    21  H    0.000000
    22  H    1.747303   0.000000
    23  C    2.148263   2.148263   0.000000
    24  H    3.024610   2.468846   1.070000   0.000000
    25  H    2.468846   3.024610   1.070000   1.747303   0.000000
    26  O    2.666083   2.666083   1.430000   2.051796   2.051796
    27  C    3.992572   3.992572   2.335180   2.568651   2.568651
    28  H    4.524806   4.173823   2.568651   2.335181   2.916529
    29  H    4.173823   4.524805   2.568650   2.916526   2.335179
    30  C    4.966618   4.966619   3.700973   3.992573   3.992571
    31  H    5.155501   4.850341   3.992857   4.174057   4.525057
    32  H    4.850198   5.155305   3.992790   4.524999   4.174071
    33  O    6.249359   6.249422   4.760217   4.887001   4.886920
    34  C    7.264939   7.264967   5.994240   6.178392   6.178358
    35  H    7.186115   7.395488   6.178930   6.535333   6.297428
    36  H    7.395613   7.186233   6.178953   6.297405   6.535323
    37  C    8.620414   8.620496   7.184734   7.263779   7.263682
    38  H    8.879130   8.705617   7.263639   7.184201   7.393505
    39  H    8.705409   8.879139   7.263622   7.393650   7.184086
    40  O    9.674416   9.674469   8.393425   8.521160   8.521100
    41  C   10.918155  10.918240   9.520329   9.580028   9.579931
    42  H   11.123819  10.985837   9.580283   9.520101   9.679001
    43  H   10.985664  11.123857   9.580277   9.679138   9.519996
    44  C   12.083238  12.083300  10.814331  10.917311  10.917243
    45  H   12.035758  12.161971  10.917542  11.122969  10.984824
    46  H   12.162012  12.035882  10.917564  10.984870  11.122924
    47  O   13.310684  13.310775  11.945491  11.996351  11.996250
    48  H   14.042920  14.042996  12.744392  12.818772  12.818689
                   26         27         28         29         30
    26  O    0.000000
    27  C    1.430000   0.000000
    28  H    2.051796   1.070000   0.000000
    29  H    2.051796   1.070000   1.747303   0.000000
    30  C    2.425826   1.540000   2.148263   2.148263   0.000000
    31  H    2.666398   2.148411   2.468907   3.024716   1.070000
    32  H    2.666277   2.148442   3.024738   2.469070   1.070000
    33  O    3.672272   2.425438   2.665681   2.665534   1.430000
    34  C    4.760991   3.700980   3.992349   3.992300   2.335595
    35  H    4.888114   3.992872   4.524867   4.173902   2.569154
    36  H    4.888181   3.992838   4.173799   4.524794   2.569183
    37  C    6.073908   4.849554   4.965909   4.965769   3.701234
    38  H    6.249324   4.965956   4.849020   5.154045   3.992732
    39  H    6.249273   4.965985   5.154304   4.848907   3.992715
    40  O    7.185523   6.073764   6.249094   6.249014   4.761005
    41  C    8.393884   7.185149   7.264065   7.263938   5.994721
    42  H    8.521934   7.264475   7.184920   7.394176   6.179187
    43  H    8.521907   7.264501   7.394388   7.184817   6.179185
    44  C    9.610722   8.489113   8.619916   8.619832   7.185552
    45  H    9.674092   8.620150   8.878890   8.705209   7.264617
    46  H    9.674136   8.620145   8.705232   8.878804   7.264639
    47  O   10.805067   9.610345   9.673489   9.673365   8.394021
    48  H   11.564110  10.412503  10.503409  10.503310   9.141351
                   31         32         33         34         35
    31  H    0.000000
    32  H    1.747303   0.000000
    33  O    2.051796   2.051796   0.000000
    34  C    2.569143   2.569195   1.430000   0.000000
    35  H    2.917045   2.335918   2.051796   1.070000   0.000000
    36  H    2.335892   2.917171   2.051796   1.070000   1.747303
    37  C    3.992996   3.993010   2.425826   1.540000   2.148263
    38  H    4.174169   4.525119   2.666082   2.148263   3.024610
    39  H    4.525092   4.174128   2.666084   2.148263   2.468846
    40  O    4.888003   4.888043   3.672528   2.425826   2.666084
    41  C    6.179173   6.179199   4.761005   3.701234   3.992729
    42  H    6.297993   6.535899   4.888021   3.992999   4.525107
    43  H    6.535873   6.297997   4.888025   3.993007   4.174162
    44  C    7.264915   7.264956   6.074086   4.849957   4.966439
    45  H    7.394905   7.185561   6.249574   4.966428   4.849643
    46  H    7.185542   7.394986   6.249586   4.966441   5.154826
    47  O    8.522123   8.522148   7.185552   6.074086   6.249583
    48  H    9.222085   9.222120   7.988764   6.807137   6.914847
                   36         37         38         39         40
    36  H    0.000000
    37  C    2.148263   0.000000
    38  H    2.468846   1.070000   0.000000
    39  H    3.024610   1.070000   1.747303   0.000000
    40  O    2.666082   1.430000   2.051796   2.051796   0.000000
    41  C    3.992718   2.335595   2.569162   2.569176   1.430000
    42  H    4.174135   2.569171   2.335900   2.917124   2.051796
    43  H    4.525104   2.569166   2.917093   2.335911   2.051796
    44  C    4.966432   3.701234   3.993001   3.993006   2.425826
    45  H    5.154808   3.992716   4.525097   4.174143   2.666074
    46  H    4.849650   3.992731   4.174154   4.525115   2.666091
    47  O    6.249578   4.761005   4.888021   4.888025   3.672528
    48  H    6.914840   5.578904   5.747568   5.747574   4.381651
                   41         42         43         44         45
    41  C    0.000000
    42  H    1.070000   0.000000
    43  H    1.070000   1.747303   0.000000
    44  C    1.540000   2.148263   2.148263   0.000000
    45  H    2.148263   3.024610   2.468852   1.070000   0.000000
    46  H    2.148263   2.468840   3.024610   1.070000   1.747303
    47  O    2.425826   2.666092   2.666075   1.430000   2.051796
    48  H    3.267955   3.547849   3.547843   1.970533   2.315962
                   46         47         48
    46  H    0.000000
    47  O    2.051796   0.000000
    48  H    2.315951   0.960000   0.000000
 Symmetry turned off by external request.
 Stoichiometry    C13H28O7
 Framework group  C1[X(C13H28O7)]
 Deg. of freedom   138
 Full point group                 C1      NOp   1
 Rotational constants (GHZ):      5.2525315      0.0350884      0.0349520
 Standard basis: 6-31G(d) (6D, 7F)
 Integral buffers will be    131072 words long.
 Raffenetti 1 integral format.
 Two-electron integral symmetry is turned off.
   356 basis functions,   672 primitive gaussians,   356 cartesian basis functions
    81 alpha electrons       81 beta electrons
       nuclear repulsion energy      1420.7173142265 Hartrees.
 NAtoms=   48 NActive=   48 NUniq=   48 SFac= 7.50D-01 NAtFMM=   80 NAOKFM=F Big=F
 One-electron integrals computed using PRISM.
 NBasis=   356 RedAO= T  NBF=   356
 NBsUse=   356 1.00D-06 NBFU=   356
 Harris functional with IExCor=  205 diagonalized for initial guess.
 ExpMin= 1.61D-01 ExpMax= 5.48D+03 ExpMxC= 8.25D+02 IAcc=1 IRadAn=         1 AccDes= 0.00D+00
 HarFok:  IExCor=  205 AccDes= 0.00D+00 IRadAn=         1 IDoV= 1
 ScaDFX=  1.000000  1.000000  1.000000  1.000000
 FoFCou: FMM=F IPFlag=           0 FMFlag=      100000 FMFlg1=           0
         NFxFlg=           0 DoJE=T BraDBF=F KetDBF=T FulRan=T
         Omega=  0.000000  0.000000  1.000000  0.000000  0.000000 ICntrl=     500 IOpCl=  0
         NMat0=    1 NMatS0=    1 NMatT0=    0 NMatD0=    1 NMtDS0=    0 NMtDT0=    0
         I1Cent=           4 NGrid=           0.
 Symmetry not used in FoFCou.
 Requested convergence on RMS density matrix=1.00D-08 within 128 cycles.
 Requested convergence on MAX density matrix=1.00D-06.
 Requested convergence on             energy=1.00D-06.
 No special actions if energy rises.
 Integral accuracy reduced to 1.0D-05 until final iterations.
 Initial convergence to 1.0D-05 achieved.  Increase integral accuracy.
 SCF Done:  E(RHF) =  -1032.50159325     A.U. after   12 cycles
             Convg  =    0.3854D-08             -V/T =  2.0017

 **********************************************************************

            Population analysis using the SCF density.

 **********************************************************************

 Alpha  occ. eigenvalues --  -20.56575 -20.56568 -20.56548 -20.56513 -20.56436
 Alpha  occ. eigenvalues --  -20.56051 -20.56049 -11.27332 -11.27322 -11.27307
 Alpha  occ. eigenvalues --  -11.27302 -11.27274 -11.27270 -11.27264 -11.27242
 Alpha  occ. eigenvalues --  -11.27196 -11.27195 -11.27097 -11.26973 -11.26552
 Alpha  occ. eigenvalues --   -1.37887  -1.37572  -1.37152  -1.36685  -1.36254
 Alpha  occ. eigenvalues --   -1.35903  -1.35185  -1.05199  -1.03892  -1.01928
 Alpha  occ. eigenvalues --   -0.99462  -0.96716  -0.94095  -0.91134  -0.84760
 Alpha  occ. eigenvalues --   -0.84482  -0.84395  -0.84044  -0.83879  -0.83761
 Alpha  occ. eigenvalues --   -0.70850  -0.70225  -0.69990  -0.69269  -0.68016
 Alpha  occ. eigenvalues --   -0.67991  -0.66406  -0.66373  -0.65174  -0.64554
 Alpha  occ. eigenvalues --   -0.64403  -0.63678  -0.62557  -0.62192  -0.61311
 Alpha  occ. eigenvalues --   -0.60235  -0.60220  -0.58938  -0.58347  -0.57967
 Alpha  occ. eigenvalues --   -0.55737  -0.55362  -0.53679  -0.53097  -0.51971
 Alpha  occ. eigenvalues --   -0.51832  -0.50844  -0.49584  -0.47430  -0.47305
 Alpha  occ. eigenvalues --   -0.47274  -0.47242  -0.47089  -0.46891  -0.44716
 Alpha  occ. eigenvalues --   -0.42959  -0.42924  -0.42886  -0.42835  -0.42781
 Alpha  occ. eigenvalues --   -0.42567
 Alpha virt. eigenvalues --    0.21649   0.23003   0.23304   0.23608   0.23788
 Alpha virt. eigenvalues --    0.24058   0.24179   0.28142   0.28297   0.28864
 Alpha virt. eigenvalues --    0.28973   0.29160   0.29699   0.29926   0.30713
 Alpha virt. eigenvalues --    0.31194   0.31251   0.32033   0.32736   0.32909
 Alpha virt. eigenvalues --    0.34030   0.34209   0.34547   0.35510   0.35868
 Alpha virt. eigenvalues --    0.36517   0.36847   0.37023   0.37208   0.37410
 Alpha virt. eigenvalues --    0.37492   0.37588   0.37638   0.37727   0.39299
 Alpha virt. eigenvalues --    0.40750   0.41154   0.41439   0.42822   0.43454
 Alpha virt. eigenvalues --    0.44007   0.44795   0.45907   0.46126   0.48127
 Alpha virt. eigenvalues --    0.52672   0.57087   0.67031   0.69760   0.72456
 Alpha virt. eigenvalues --    0.74784   0.75691   0.75921   0.76455   0.76939
 Alpha virt. eigenvalues --    0.77163   0.77915   0.77974   0.78567   0.78968
 Alpha virt. eigenvalues --    0.79233   0.80197   0.80236   0.80636   0.81929
 Alpha virt. eigenvalues --    0.82397   0.82619   0.82866   0.83169   0.84976
 Alpha virt. eigenvalues --    0.88508   0.89464   0.90807   0.93013   0.94350
 Alpha virt. eigenvalues --    0.94499   0.95291   0.99334   0.99833   1.00087
 Alpha virt. eigenvalues --    1.00437   1.00792   1.01314   1.01932   1.02275
 Alpha virt. eigenvalues --    1.04643   1.05714   1.07351   1.09067   1.09638
 Alpha virt. eigenvalues --    1.10732   1.11323   1.12118   1.13063   1.14066
 Alpha virt. eigenvalues --    1.14855   1.14871   1.14938   1.15838   1.18404
 Alpha virt. eigenvalues --    1.19033   1.19124   1.19485   1.19745   1.19768
 Alpha virt. eigenvalues --    1.20113   1.20136   1.20329   1.20557   1.20700
 Alpha virt. eigenvalues --    1.20709   1.21698   1.21948   1.22324   1.23421
 Alpha virt. eigenvalues --    1.24766   1.25251   1.26325   1.26760   1.26979
 Alpha virt. eigenvalues --    1.27809   1.29552   1.30035   1.32163   1.36503
 Alpha virt. eigenvalues --    1.39581   1.39898   1.40002   1.41624   1.42664
 Alpha virt. eigenvalues --    1.43322   1.43744   1.46401   1.47641   1.47817
 Alpha virt. eigenvalues --    1.52913   1.56225   1.59800   1.61702   1.64280
 Alpha virt. eigenvalues --    1.65028   1.65960   1.66199   1.66215   1.66594
 Alpha virt. eigenvalues --    1.67451   1.68042   1.68717   1.69321   1.69734
 Alpha virt. eigenvalues --    1.69841   1.70230   1.72311   1.73020   1.75264
 Alpha virt. eigenvalues --    1.76440   1.78963   1.79601   1.80725   1.81350
 Alpha virt. eigenvalues --    1.81560   1.83420   1.87725   1.90660   1.97278
 Alpha virt. eigenvalues --    2.03693   2.03719   2.09447   2.11695   2.11926
 Alpha virt. eigenvalues --    2.12516   2.12990   2.13436   2.13680   2.14530
 Alpha virt. eigenvalues --    2.14543   2.15398   2.16033   2.16391   2.18644
 Alpha virt. eigenvalues --    2.19431   2.21656   2.27234   2.28659   2.30653
 Alpha virt. eigenvalues --    2.32508   2.33708   2.34722   2.34960   2.35965
 Alpha virt. eigenvalues --    2.36296   2.36979   2.37903   2.38282   2.39227
 Alpha virt. eigenvalues --    2.40310   2.40763   2.41546   2.42933   2.43972
 Alpha virt. eigenvalues --    2.45683   2.47349   2.47916   2.48523   2.48782
 Alpha virt. eigenvalues --    2.49328   2.49998   2.50875   2.51912   2.52439
 Alpha virt. eigenvalues --    2.54238   2.55730   2.56808   2.57519   2.60275
 Alpha virt. eigenvalues --    2.61126   2.62428   2.63631   2.65299   2.67221
 Alpha virt. eigenvalues --    2.68301   2.70106   2.70888   2.72821   2.74959
 Alpha virt. eigenvalues --    2.78638   2.82876   2.84133   2.85300   2.86069
 Alpha virt. eigenvalues --    2.86662   2.86899   2.86945   2.88240   2.91416
 Alpha virt. eigenvalues --    2.93051   3.00354   3.02370   3.03139   3.04438
 Alpha virt. eigenvalues --    3.04862   3.05677   3.06071   3.06974   3.07896
 Alpha virt. eigenvalues --    3.11444   3.12318   3.16875   3.25134   3.34346
 Alpha virt. eigenvalues --    3.37951   3.40975   3.41735   3.43945   3.44120
 Alpha virt. eigenvalues --    4.12882   4.22925   4.28896   4.37654   4.47072
 Alpha virt. eigenvalues --    4.55174   4.60846   4.64460   4.65558   4.65823
 Alpha virt. eigenvalues --    4.65874   4.66446   4.66569   4.68641   4.82895
 Alpha virt. eigenvalues --    4.84564   4.87058   4.89836   4.92348   4.94107
          Condensed to atoms (all electrons):
              1          2          3          4          5          6
     1  C    4.819021   0.402284   0.393629   0.393629   0.215680  -0.054840
     2  H    0.402284   0.499543  -0.030165  -0.030165  -0.028498   0.005038
     3  H    0.393629  -0.030165   0.570744  -0.043976  -0.039805  -0.007219
     4  H    0.393629  -0.030165  -0.043976   0.570744  -0.039805  -0.007219
     5  O    0.215680  -0.028498  -0.039805  -0.039805   8.440132   0.204264
     6  C   -0.054840   0.005038  -0.007219  -0.007219   0.204264   4.786206
     7  H   -0.005631  -0.000108  -0.001324   0.007715  -0.039438   0.392273
     8  H   -0.005631  -0.000108   0.007715  -0.001324  -0.039438   0.392273
     9  C    0.004469  -0.000082  -0.000147  -0.000147  -0.037164   0.391535
    10  H   -0.000172   0.000004  -0.000014   0.000018   0.003690  -0.038995
    11  H   -0.000172   0.000004   0.000018  -0.000014   0.003690  -0.038995
    12  O   -0.000042   0.000000   0.000001   0.000001   0.000731  -0.036826
    13  C    0.000002   0.000000   0.000000   0.000000  -0.000037   0.004333
    14  H    0.000000   0.000000   0.000000   0.000000   0.000001  -0.000077
    15  H    0.000000   0.000000   0.000000   0.000000   0.000001  -0.000077
    16  C    0.000000   0.000000   0.000000   0.000000   0.000000  -0.000079
    17  H    0.000000   0.000000   0.000000   0.000000   0.000000   0.000003
    18  H    0.000000   0.000000   0.000000   0.000000   0.000000   0.000003
    19  O    0.000000   0.000000   0.000000   0.000000   0.000000   0.000000
    20  C    0.000000   0.000000   0.000000   0.000000   0.000000   0.000000
    21  H    0.000000   0.000000   0.000000   0.000000   0.000000   0.000000
    22  H    0.000000   0.000000   0.000000   0.000000   0.000000   0.000000
    23  C    0.000000   0.000000   0.000000   0.000000   0.000000   0.000000
    24  H    0.000000   0.000000   0.000000   0.000000   0.000000   0.000000
    25  H    0.000000   0.000000   0.000000   0.000000   0.000000   0.000000
    26  O    0.000000   0.000000   0.000000   0.000000   0.000000   0.000000
    27  C    0.000000   0.000000   0.000000   0.000000   0.000000   0.000000
    28  H    0.000000   0.000000   0.000000   0.000000   0.000000   0.000000
    29  H    0.000000   0.000000   0.000000   0.000000   0.000000   0.000000
    30  C    0.000000   0.000000   0.000000   0.000000   0.000000   0.000000
    31  H    0.000000   0.000000   0.000000   0.000000   0.000000   0.000000
    32  H    0.000000   0.000000   0.000000   0.000000   0.000000   0.000000
    33  O    0.000000   0.000000   0.000000   0.000000   0.000000   0.000000
    34  C    0.000000   0.000000   0.000000   0.000000   0.000000   0.000000
    35  H    0.000000   0.000000   0.000000   0.000000   0.000000   0.000000
    36  H    0.000000   0.000000   0.000000   0.000000   0.000000   0.000000
    37  C    0.000000   0.000000   0.000000   0.000000   0.000000   0.000000
    38  H    0.000000   0.000000   0.000000   0.000000   0.000000   0.000000
    39  H    0.000000   0.000000   0.000000   0.000000   0.000000   0.000000
    40  O    0.000000   0.000000   0.000000   0.000000   0.000000   0.000000
    41  C    0.000000   0.000000   0.000000   0.000000   0.000000   0.000000
    42  H    0.000000   0.000000   0.000000   0.000000   0.000000   0.000000
    43  H    0.000000   0.000000   0.000000   0.000000   0.000000   0.000000
    44  C    0.000000   0.000000   0.000000   0.000000   0.000000   0.000000
    45  H    0.000000   0.000000   0.000000   0.000000   0.000000   0.000000
    46  H    0.000000   0.000000   0.000000   0.000000   0.000000   0.000000
    47  O    0.000000   0.000000   0.000000   0.000000   0.000000   0.000000
    48  H    0.000000   0.000000   0.000000   0.000000   0.000000   0.000000
              7          8          9         10         11         12
     1  C   -0.005631  -0.005631   0.004469  -0.000172  -0.000172  -0.000042
     2  H   -0.000108  -0.000108  -0.000082   0.000004   0.000004   0.000000
     3  H   -0.001324   0.007715  -0.000147  -0.000014   0.000018   0.000001
     4  H    0.007715  -0.001324  -0.000147   0.000018  -0.000014   0.000001
     5  O   -0.039438  -0.039438  -0.037164   0.003690   0.003690   0.000731
     6  C    0.392273   0.392273   0.391535  -0.038995  -0.038995  -0.036826
     7  H    0.571274  -0.045622  -0.039734   0.005285  -0.006200   0.003689
     8  H   -0.045622   0.571274  -0.039734  -0.006200   0.005285   0.003689
     9  C   -0.039734  -0.039734   4.784693   0.393474   0.393474   0.195682
    10  H    0.005285  -0.006200   0.393474   0.564305  -0.044432  -0.038681
    11  H   -0.006200   0.005285   0.393474  -0.044432   0.564305  -0.038681
    12  O    0.003689   0.003689   0.195682  -0.038681  -0.038681   8.488840
    13  C   -0.000183  -0.000183  -0.048647  -0.006195  -0.006195   0.197432
    14  H    0.000016  -0.000011  -0.006107   0.007275  -0.001327  -0.038703
    15  H   -0.000011   0.000016  -0.006107  -0.001327   0.007275  -0.038703
    16  C    0.000003   0.000003   0.004325  -0.000073  -0.000073  -0.036769
    17  H    0.000000   0.000001  -0.000180  -0.000012   0.000016   0.003688
    18  H    0.000001   0.000000  -0.000180   0.000016  -0.000012   0.003688
    19  O    0.000000   0.000000  -0.000037   0.000001   0.000001   0.000731
    20  C    0.000000   0.000000   0.000002   0.000000   0.000000  -0.000037
    21  H    0.000000   0.000000   0.000000   0.000000   0.000000   0.000001
    22  H    0.000000   0.000000   0.000000   0.000000   0.000000   0.000001
    23  C    0.000000   0.000000   0.000000   0.000000   0.000000   0.000000
    24  H    0.000000   0.000000   0.000000   0.000000   0.000000   0.000000
    25  H    0.000000   0.000000   0.000000   0.000000   0.000000   0.000000
    26  O    0.000000   0.000000   0.000000   0.000000   0.000000   0.000000
    27  C    0.000000   0.000000   0.000000   0.000000   0.000000   0.000000
    28  H    0.000000   0.000000   0.000000   0.000000   0.000000   0.000000
    29  H    0.000000   0.000000   0.000000   0.000000   0.000000   0.000000
    30  C    0.000000   0.000000   0.000000   0.000000   0.000000   0.000000
    31  H    0.000000   0.000000   0.000000   0.000000   0.000000   0.000000
    32  H    0.000000   0.000000   0.000000   0.000000   0.000000   0.000000
    33  O    0.000000   0.000000   0.000000   0.000000   0.000000   0.000000
    34  C    0.000000   0.000000   0.000000   0.000000   0.000000   0.000000
    35  H    0.000000   0.000000   0.000000   0.000000   0.000000   0.000000
    36  H    0.000000   0.000000   0.000000   0.000000   0.000000   0.000000
    37  C    0.000000   0.000000   0.000000   0.000000   0.000000   0.000000
    38  H    0.000000   0.000000   0.000000   0.000000   0.000000   0.000000
    39  H    0.000000   0.000000   0.000000   0.000000   0.000000   0.000000
    40  O    0.000000   0.000000   0.000000   0.000000   0.000000   0.000000
    41  C    0.000000   0.000000   0.000000   0.000000   0.000000   0.000000
    42  H    0.000000   0.000000   0.000000   0.000000   0.000000   0.000000
    43  H    0.000000   0.000000   0.000000   0.000000   0.000000   0.000000
    44  C    0.000000   0.000000   0.000000   0.000000   0.000000   0.000000
    45  H    0.000000   0.000000   0.000000   0.000000   0.000000   0.000000
    46  H    0.000000   0.000000   0.000000   0.000000   0.000000   0.000000
    47  O    0.000000   0.000000   0.000000   0.000000   0.000000   0.000000
    48  H    0.000000   0.000000   0.000000   0.000000   0.000000   0.000000
             13         14         15         16         17         18
     1  C    0.000002   0.000000   0.000000   0.000000   0.000000   0.000000
     2  H    0.000000   0.000000   0.000000   0.000000   0.000000   0.000000
     3  H    0.000000   0.000000   0.000000   0.000000   0.000000   0.000000
     4  H    0.000000   0.000000   0.000000   0.000000   0.000000   0.000000
     5  O   -0.000037   0.000001   0.000001   0.000000   0.000000   0.000000
     6  C    0.004333  -0.000077  -0.000077  -0.000079   0.000003   0.000003
     7  H   -0.000183   0.000016  -0.000011   0.000003   0.000000   0.000001
     8  H   -0.000183  -0.000011   0.000016   0.000003   0.000001   0.000000
     9  C   -0.048647  -0.006107  -0.006107   0.004325  -0.000180  -0.000180
    10  H   -0.006195   0.007275  -0.001327  -0.000073  -0.000012   0.000016
    11  H   -0.006195  -0.001327   0.007275  -0.000073   0.000016  -0.000012
    12  O    0.197432  -0.038703  -0.038703  -0.036769   0.003688   0.003688
    13  C    4.780187   0.393430   0.393430   0.392048  -0.039173  -0.039173
    14  H    0.393430   0.565122  -0.044565  -0.039296  -0.006147   0.005252
    15  H    0.393430  -0.044565   0.565122  -0.039296   0.005252  -0.006147
    16  C    0.392048  -0.039296  -0.039296   4.781893   0.393300   0.393300
    17  H   -0.039173  -0.006147   0.005252   0.393300   0.565497  -0.044646
    18  H   -0.039173   0.005252  -0.006147   0.393300  -0.044646   0.565497
    19  O   -0.036686   0.003672   0.003672   0.196755  -0.038675  -0.038675
    20  C    0.004324  -0.000182  -0.000182  -0.048655  -0.006189  -0.006189
    21  H   -0.000075   0.000016  -0.000012  -0.006161  -0.001329   0.007284
    22  H   -0.000075  -0.000012   0.000016  -0.006161   0.007284  -0.001329
    23  C   -0.000078   0.000003   0.000003   0.004325  -0.000074  -0.000074
    24  H    0.000003   0.000001   0.000000  -0.000181  -0.000012   0.000016
    25  H    0.000003   0.000000   0.000001  -0.000181   0.000016  -0.000012
    26  O    0.000000   0.000000   0.000000  -0.000037   0.000001   0.000001
    27  C    0.000000   0.000000   0.000000   0.000002   0.000000   0.000000
    28  H    0.000000   0.000000   0.000000   0.000000   0.000000   0.000000
    29  H    0.000000   0.000000   0.000000   0.000000   0.000000   0.000000
    30  C    0.000000   0.000000   0.000000   0.000000   0.000000   0.000000
    31  H    0.000000   0.000000   0.000000   0.000000   0.000000   0.000000
    32  H    0.000000   0.000000   0.000000   0.000000   0.000000   0.000000
    33  O    0.000000   0.000000   0.000000   0.000000   0.000000   0.000000
    34  C    0.000000   0.000000   0.000000   0.000000   0.000000   0.000000
    35  H    0.000000   0.000000   0.000000   0.000000   0.000000   0.000000
    36  H    0.000000   0.000000   0.000000   0.000000   0.000000   0.000000
    37  C    0.000000   0.000000   0.000000   0.000000   0.000000   0.000000
    38  H    0.000000   0.000000   0.000000   0.000000   0.000000   0.000000
    39  H    0.000000   0.000000   0.000000   0.000000   0.000000   0.000000
    40  O    0.000000   0.000000   0.000000   0.000000   0.000000   0.000000
    41  C    0.000000   0.000000   0.000000   0.000000   0.000000   0.000000
    42  H    0.000000   0.000000   0.000000   0.000000   0.000000   0.000000
    43  H    0.000000   0.000000   0.000000   0.000000   0.000000   0.000000
    44  C    0.000000   0.000000   0.000000   0.000000   0.000000   0.000000
    45  H    0.000000   0.000000   0.000000   0.000000   0.000000   0.000000
    46  H    0.000000   0.000000   0.000000   0.000000   0.000000   0.000000
    47  O    0.000000   0.000000   0.000000   0.000000   0.000000   0.000000
    48  H    0.000000   0.000000   0.000000   0.000000   0.000000   0.000000
             19         20         21         22         23         24
     1  C    0.000000   0.000000   0.000000   0.000000   0.000000   0.000000
     2  H    0.000000   0.000000   0.000000   0.000000   0.000000   0.000000
     3  H    0.000000   0.000000   0.000000   0.000000   0.000000   0.000000
     4  H    0.000000   0.000000   0.000000   0.000000   0.000000   0.000000
     5  O    0.000000   0.000000   0.000000   0.000000   0.000000   0.000000
     6  C    0.000000   0.000000   0.000000   0.000000   0.000000   0.000000
     7  H    0.000000   0.000000   0.000000   0.000000   0.000000   0.000000
     8  H    0.000000   0.000000   0.000000   0.000000   0.000000   0.000000
     9  C   -0.000037   0.000002   0.000000   0.000000   0.000000   0.000000
    10  H    0.000001   0.000000   0.000000   0.000000   0.000000   0.000000
    11  H    0.000001   0.000000   0.000000   0.000000   0.000000   0.000000
    12  O    0.000731  -0.000037   0.000001   0.000001   0.000000   0.000000
    13  C   -0.036686   0.004324  -0.000075  -0.000075  -0.000078   0.000003
    14  H    0.003672  -0.000182   0.000016  -0.000012   0.000003   0.000001
    15  H    0.003672  -0.000182  -0.000012   0.000016   0.000003   0.000000
    16  C    0.196755  -0.048655  -0.006161  -0.006161   0.004325  -0.000181
    17  H   -0.038675  -0.006189  -0.001329   0.007284  -0.000074  -0.000012
    18  H   -0.038675  -0.006189   0.007284  -0.001329  -0.000074   0.000016
    19  O    8.487418   0.197105  -0.038679  -0.038679  -0.036716   0.003677
    20  C    0.197105   4.780948   0.393354   0.393354   0.392043  -0.039206
    21  H   -0.038679   0.393354   0.565306  -0.044614  -0.039230   0.005248
    22  H   -0.038679   0.393354  -0.044614   0.565307  -0.039230  -0.006143
    23  C   -0.036716   0.392043  -0.039230  -0.039230   4.781407   0.393419
    24  H    0.003677  -0.039206   0.005248  -0.006143   0.393419   0.564832
    25  H    0.003677  -0.039206  -0.006143   0.005248   0.393419  -0.044539
    26  O    0.000730  -0.036700   0.003676   0.003676   0.196802  -0.038665
    27  C   -0.000037   0.004325  -0.000181  -0.000181  -0.048647  -0.006161
    28  H    0.000001  -0.000075   0.000016  -0.000012  -0.006156   0.007272
    29  H    0.000001  -0.000075  -0.000012   0.000016  -0.006157  -0.001326
    30  C    0.000000  -0.000078   0.000003   0.000003   0.004326  -0.000074
    31  H    0.000000   0.000003   0.000000   0.000001  -0.000181  -0.000012
    32  H    0.000000   0.000003   0.000001   0.000000  -0.000181   0.000016
    33  O    0.000000   0.000000   0.000000   0.000000  -0.000037   0.000001
    34  C    0.000000   0.000000   0.000000   0.000000   0.000002   0.000000
    35  H    0.000000   0.000000   0.000000   0.000000   0.000000   0.000000
    36  H    0.000000   0.000000   0.000000   0.000000   0.000000   0.000000
    37  C    0.000000   0.000000   0.000000   0.000000   0.000000   0.000000
    38  H    0.000000   0.000000   0.000000   0.000000   0.000000   0.000000
    39  H    0.000000   0.000000   0.000000   0.000000   0.000000   0.000000
    40  O    0.000000   0.000000   0.000000   0.000000   0.000000   0.000000
    41  C    0.000000   0.000000   0.000000   0.000000   0.000000   0.000000
    42  H    0.000000   0.000000   0.000000   0.000000   0.000000   0.000000
    43  H    0.000000   0.000000   0.000000   0.000000   0.000000   0.000000
    44  C    0.000000   0.000000   0.000000   0.000000   0.000000   0.000000
    45  H    0.000000   0.000000   0.000000   0.000000   0.000000   0.000000
    46  H    0.000000   0.000000   0.000000   0.000000   0.000000   0.000000
    47  O    0.000000   0.000000   0.000000   0.000000   0.000000   0.000000
    48  H    0.000000   0.000000   0.000000   0.000000   0.000000   0.000000
             25         26         27         28         29         30
     1  C    0.000000   0.000000   0.000000   0.000000   0.000000   0.000000
     2  H    0.000000   0.000000   0.000000   0.000000   0.000000   0.000000
     3  H    0.000000   0.000000   0.000000   0.000000   0.000000   0.000000
     4  H    0.000000   0.000000   0.000000   0.000000   0.000000   0.000000
     5  O    0.000000   0.000000   0.000000   0.000000   0.000000   0.000000
     6  C    0.000000   0.000000   0.000000   0.000000   0.000000   0.000000
     7  H    0.000000   0.000000   0.000000   0.000000   0.000000   0.000000
     8  H    0.000000   0.000000   0.000000   0.000000   0.000000   0.000000
     9  C    0.000000   0.000000   0.000000   0.000000   0.000000   0.000000
    10  H    0.000000   0.000000   0.000000   0.000000   0.000000   0.000000
    11  H    0.000000   0.000000   0.000000   0.000000   0.000000   0.000000
    12  O    0.000000   0.000000   0.000000   0.000000   0.000000   0.000000
    13  C    0.000003   0.000000   0.000000   0.000000   0.000000   0.000000
    14  H    0.000000   0.000000   0.000000   0.000000   0.000000   0.000000
    15  H    0.000001   0.000000   0.000000   0.000000   0.000000   0.000000
    16  C   -0.000181  -0.000037   0.000002   0.000000   0.000000   0.000000
    17  H    0.000016   0.000001   0.000000   0.000000   0.000000   0.000000
    18  H   -0.000012   0.000001   0.000000   0.000000   0.000000   0.000000
    19  O    0.003677   0.000730  -0.000037   0.000001   0.000001   0.000000
    20  C   -0.039206  -0.036700   0.004325  -0.000075  -0.000075  -0.000078
    21  H   -0.006143   0.003676  -0.000181   0.000016  -0.000012   0.000003
    22  H    0.005248   0.003676  -0.000181  -0.000012   0.000016   0.000003
    23  C    0.393419   0.196802  -0.048647  -0.006156  -0.006157   0.004326
    24  H   -0.044539  -0.038665  -0.006161   0.007272  -0.001326  -0.000074
    25  H    0.564831  -0.038665  -0.006161  -0.001326   0.007271  -0.000074
    26  O   -0.038665   8.487830   0.196846  -0.038664  -0.038663  -0.036707
    27  C   -0.006161   0.196846   4.781269   0.393423   0.393426   0.392043
    28  H   -0.001326  -0.038664   0.393423   0.564792  -0.044533  -0.039210
    29  H    0.007271  -0.038663   0.393426  -0.044533   0.564784  -0.039214
    30  C   -0.000074  -0.036707   0.392043  -0.039210  -0.039214   4.781052
    31  H    0.000016   0.003675  -0.039201  -0.006140   0.005245   0.393350
    32  H   -0.000012   0.003676  -0.039200   0.005245  -0.006137   0.393353
    33  O    0.000001   0.000731  -0.036759   0.003679   0.003679   0.196999
    34  C    0.000000  -0.000037   0.004324  -0.000181  -0.000181  -0.048588
    35  H    0.000000   0.000001  -0.000075   0.000016  -0.000012  -0.006171
    36  H    0.000000   0.000001  -0.000075  -0.000012   0.000016  -0.006171
    37  C    0.000000   0.000000  -0.000078   0.000003   0.000003   0.004319
    38  H    0.000000   0.000000   0.000003   0.000001   0.000000  -0.000181
    39  H    0.000000   0.000000   0.000003   0.000000   0.000001  -0.000181
    40  O    0.000000   0.000000   0.000000   0.000000   0.000000  -0.000037
    41  C    0.000000   0.000000   0.000000   0.000000   0.000000   0.000002
    42  H    0.000000   0.000000   0.000000   0.000000   0.000000   0.000000
    43  H    0.000000   0.000000   0.000000   0.000000   0.000000   0.000000
    44  C    0.000000   0.000000   0.000000   0.000000   0.000000   0.000000
    45  H    0.000000   0.000000   0.000000   0.000000   0.000000   0.000000
    46  H    0.000000   0.000000   0.000000   0.000000   0.000000   0.000000
    47  O    0.000000   0.000000   0.000000   0.000000   0.000000   0.000000
    48  H    0.000000   0.000000   0.000000   0.000000   0.000000   0.000000
             31         32         33         34         35         36
     1  C    0.000000   0.000000   0.000000   0.000000   0.000000   0.000000
     2  H    0.000000   0.000000   0.000000   0.000000   0.000000   0.000000
     3  H    0.000000   0.000000   0.000000   0.000000   0.000000   0.000000
     4  H    0.000000   0.000000   0.000000   0.000000   0.000000   0.000000
     5  O    0.000000   0.000000   0.000000   0.000000   0.000000   0.000000
     6  C    0.000000   0.000000   0.000000   0.000000   0.000000   0.000000
     7  H    0.000000   0.000000   0.000000   0.000000   0.000000   0.000000
     8  H    0.000000   0.000000   0.000000   0.000000   0.000000   0.000000
     9  C    0.000000   0.000000   0.000000   0.000000   0.000000   0.000000
    10  H    0.000000   0.000000   0.000000   0.000000   0.000000   0.000000
    11  H    0.000000   0.000000   0.000000   0.000000   0.000000   0.000000
    12  O    0.000000   0.000000   0.000000   0.000000   0.000000   0.000000
    13  C    0.000000   0.000000   0.000000   0.000000   0.000000   0.000000
    14  H    0.000000   0.000000   0.000000   0.000000   0.000000   0.000000
    15  H    0.000000   0.000000   0.000000   0.000000   0.000000   0.000000
    16  C    0.000000   0.000000   0.000000   0.000000   0.000000   0.000000
    17  H    0.000000   0.000000   0.000000   0.000000   0.000000   0.000000
    18  H    0.000000   0.000000   0.000000   0.000000   0.000000   0.000000
    19  O    0.000000   0.000000   0.000000   0.000000   0.000000   0.000000
    20  C    0.000003   0.000003   0.000000   0.000000   0.000000   0.000000
    21  H    0.000000   0.000001   0.000000   0.000000   0.000000   0.000000
    22  H    0.000001   0.000000   0.000000   0.000000   0.000000   0.000000
    23  C   -0.000181  -0.000181  -0.000037   0.000002   0.000000   0.000000
    24  H   -0.000012   0.000016   0.000001   0.000000   0.000000   0.000000
    25  H    0.000016  -0.000012   0.000001   0.000000   0.000000   0.000000
    26  O    0.003675   0.003676   0.000731  -0.000037   0.000001   0.000001
    27  C   -0.039201  -0.039200  -0.036759   0.004324  -0.000075  -0.000075
    28  H   -0.006140   0.005245   0.003679  -0.000181   0.000016  -0.000012
    29  H    0.005245  -0.006137   0.003679  -0.000181  -0.000012   0.000016
    30  C    0.393350   0.393353   0.196999  -0.048588  -0.006171  -0.006171
    31  H    0.565231  -0.044608  -0.038673  -0.006155  -0.001327   0.007279
    32  H   -0.044608   0.565214  -0.038672  -0.006155   0.007279  -0.001327
    33  O   -0.038673  -0.038672   8.487407   0.196888  -0.038672  -0.038672
    34  C   -0.006155  -0.006155   0.196888   4.781557   0.393304   0.393304
    35  H   -0.001327   0.007279  -0.038672   0.393304   0.565446  -0.044637
    36  H    0.007279  -0.001327  -0.038672   0.393304  -0.044637   0.565445
    37  C   -0.000075  -0.000075  -0.036685   0.392093  -0.039200  -0.039201
    38  H   -0.000012   0.000016   0.003673  -0.039258   0.005249  -0.006144
    39  H    0.000016  -0.000012   0.003673  -0.039258  -0.006144   0.005249
    40  O    0.000001   0.000001   0.000731  -0.036724   0.003686   0.003686
    41  C    0.000000   0.000000  -0.000037   0.004346  -0.000180  -0.000180
    42  H    0.000000   0.000000   0.000001  -0.000077   0.000016  -0.000012
    43  H    0.000000   0.000000   0.000001  -0.000077  -0.000012   0.000016
    44  C    0.000000   0.000000   0.000000  -0.000082   0.000003   0.000003
    45  H    0.000000   0.000000   0.000000   0.000003   0.000001   0.000000
    46  H    0.000000   0.000000   0.000000   0.000003   0.000000   0.000001
    47  O    0.000000   0.000000   0.000000   0.000000   0.000000   0.000000
    48  H    0.000000   0.000000   0.000000   0.000000   0.000000   0.000000
             37         38         39         40         41         42
     1  C    0.000000   0.000000   0.000000   0.000000   0.000000   0.000000
     2  H    0.000000   0.000000   0.000000   0.000000   0.000000   0.000000
     3  H    0.000000   0.000000   0.000000   0.000000   0.000000   0.000000
     4  H    0.000000   0.000000   0.000000   0.000000   0.000000   0.000000
     5  O    0.000000   0.000000   0.000000   0.000000   0.000000   0.000000
     6  C    0.000000   0.000000   0.000000   0.000000   0.000000   0.000000
     7  H    0.000000   0.000000   0.000000   0.000000   0.000000   0.000000
     8  H    0.000000   0.000000   0.000000   0.000000   0.000000   0.000000
     9  C    0.000000   0.000000   0.000000   0.000000   0.000000   0.000000
    10  H    0.000000   0.000000   0.000000   0.000000   0.000000   0.000000
    11  H    0.000000   0.000000   0.000000   0.000000   0.000000   0.000000
    12  O    0.000000   0.000000   0.000000   0.000000   0.000000   0.000000
    13  C    0.000000   0.000000   0.000000   0.000000   0.000000   0.000000
    14  H    0.000000   0.000000   0.000000   0.000000   0.000000   0.000000
    15  H    0.000000   0.000000   0.000000   0.000000   0.000000   0.000000
    16  C    0.000000   0.000000   0.000000   0.000000   0.000000   0.000000
    17  H    0.000000   0.000000   0.000000   0.000000   0.000000   0.000000
    18  H    0.000000   0.000000   0.000000   0.000000   0.000000   0.000000
    19  O    0.000000   0.000000   0.000000   0.000000   0.000000   0.000000
    20  C    0.000000   0.000000   0.000000   0.000000   0.000000   0.000000
    21  H    0.000000   0.000000   0.000000   0.000000   0.000000   0.000000
    22  H    0.000000   0.000000   0.000000   0.000000   0.000000   0.000000
    23  C    0.000000   0.000000   0.000000   0.000000   0.000000   0.000000
    24  H    0.000000   0.000000   0.000000   0.000000   0.000000   0.000000
    25  H    0.000000   0.000000   0.000000   0.000000   0.000000   0.000000
    26  O    0.000000   0.000000   0.000000   0.000000   0.000000   0.000000
    27  C   -0.000078   0.000003   0.000003   0.000000   0.000000   0.000000
    28  H    0.000003   0.000001   0.000000   0.000000   0.000000   0.000000
    29  H    0.000003   0.000000   0.000001   0.000000   0.000000   0.000000
    30  C    0.004319  -0.000181  -0.000181  -0.000037   0.000002   0.000000
    31  H   -0.000075  -0.000012   0.000016   0.000001   0.000000   0.000000
    32  H   -0.000075   0.000016  -0.000012   0.000001   0.000000   0.000000
    33  O   -0.036685   0.003673   0.003673   0.000731  -0.000037   0.000001
    34  C    0.392093  -0.039258  -0.039258  -0.036724   0.004346  -0.000077
    35  H   -0.039200   0.005249  -0.006144   0.003686  -0.000180   0.000016
    36  H   -0.039201  -0.006144   0.005249   0.003686  -0.000180  -0.000012
    37  C    4.780587   0.393459   0.393459   0.197283  -0.048185  -0.006208
[...]
 **** Fit      -0.004261
 **** Fit      -0.005948
 **** Fit       0.001631
 **** Fit       0.000904
 **** Fit       0.000521
 **** Fit      -0.000213
 **** Fit      -0.001013
 **** Fit      -0.001890
 **** Fit      -0.002816
 **** Fit      -0.003692
 **** Fit       0.002042
 **** Fit       0.001237
 **** Fit       0.000632
 **** Fit       0.000000
 **** Fit      -0.000616
 **** Fit      -0.001196
 **** Fit      -0.001651
 **** Fit       0.001326
 **** Fit       0.000441
 **** Fit      -0.000123
 **** Fit      -0.000590
 **** Fit      -0.000899
 **** Fit      -0.000876
 **** Fit       0.001149
 **** Fit      -0.000163
 **** Fit      -0.000640
 **** Fit      -0.000959
 **** Fit      -0.001019
 **** Fit      -0.001391
 **** Fit      -0.001777
 **** Fit      -0.006856
 **** Fit      -0.007469
 **** Fit      -0.010398
 **** Fit      -0.009456
 **** Fit      -0.006072
 **** Fit      -0.004265
 **** Fit      -0.004806
 **** Fit      -0.007855
 **** Fit      -0.011742
 **** Fit      -0.015330
 **** Fit      -0.012760
 **** Fit      -0.008446
 **** Fit      -0.005174
 **** Fit      -0.003237
 **** Fit      -0.002348
 **** Fit      -0.002336
 **** Fit      -0.003181
 **** Fit      -0.004967
 **** Fit      -0.007952
 **** Fit      -0.011994
 **** Fit      -0.011185
 **** Fit      -0.006952
 **** Fit      -0.004218
 **** Fit      -0.002515
 **** Fit      -0.001476
 **** Fit      -0.000921
 **** Fit      -0.000798
 **** Fit      -0.001110
 **** Fit      -0.001877
 **** Fit      -0.003159
 **** Fit      -0.005099
 **** Fit      -0.007694
 **** Fit      -0.007106
 **** Fit      -0.004249
 **** Fit      -0.002472
 **** Fit      -0.001306
 **** Fit      -0.000504
 **** Fit       0.000027
 **** Fit       0.000298
 **** Fit       0.000281
 **** Fit      -0.000042
 **** Fit      -0.000671
 **** Fit      -0.001623
 **** Fit      -0.002975
 **** Fit      -0.004900
 **** Fit      -0.005342
 **** Fit      -0.003123
 **** Fit      -0.001756
 **** Fit      -0.000812
 **** Fit      -0.000082
 **** Fit       0.000512
 **** Fit       0.000964
 **** Fit       0.001225
 **** Fit       0.001232
 **** Fit       0.000965
 **** Fit       0.000452
 **** Fit      -0.000275
 **** Fit      -0.001239
 **** Fit      -0.002536
 **** Fit      -0.003517
 **** Fit      -0.002088
 **** Fit      -0.001203
 **** Fit      -0.000532
 **** Fit       0.000079
 **** Fit       0.000684
 **** Fit       0.001274
 **** Fit       0.001790
 **** Fit       0.002133
 **** Fit       0.002198
 **** Fit       0.001951
 **** Fit       0.001472
 **** Fit       0.000861
 **** Fit       0.000145
 **** Fit      -0.000733
 **** Fit      -0.001273
 **** Fit      -0.000876
 **** Fit      -0.000479
 **** Fit       0.000029
 **** Fit       0.000676
 **** Fit       0.001444
 **** Fit       0.001527
 **** Fit      -0.000768
 **** Fit      -0.000934
 **** Fit      -0.000841
 **** Fit      -0.000436
 **** Fit       0.000281
 **** Fit      -0.001720
 **** Fit      -0.001084
 **** Fit      -0.006213
 **** Fit      -0.005777
 **** Fit      -0.003175
 **** Fit      -0.001339
 **** Fit       0.018186
 **** Fit      -0.004866
 **** Fit      -0.004925
 **** Fit      -0.003948
 **** Fit       0.017953
 **** Fit       0.015492
 **** Fit      -0.002056
 **** Fit       0.017302
 **** Fit       0.017515
 **** Fit       0.016757
 **** Fit       0.015318
 **** Fit       0.013522
 **** Fit       0.011650
 **** Fit       0.013520
 **** Fit       0.012459
 **** Fit       0.011045
 **** Fit       0.009499
 **** Fit       0.008886
 **** Fit       0.007521
 **** Fit       0.006526
 **** Fit       0.005125
 **** Fit       0.003575
 **** Fit       0.002630
 **** Fit       0.000696
 **** Fit      -0.001757
 **** Fit      -0.005057
 **** Fit       0.000039
 **** Fit      -0.002764
 **** Fit      -0.006630
 **** Fit      -0.005479
 **** Fit      -0.001079
 **** Fit      -0.001870
 **** Fit      -0.002628
 **** Fit       0.003993
 **** Fit       0.002268
 **** Fit       0.001025
 **** Fit       0.000047
 **** Fit      -0.000756
 **** Fit      -0.001369
 **** Fit       0.008451
 **** Fit       0.005724
 **** Fit       0.003898
 **** Fit       0.002561
 **** Fit       0.001496
 **** Fit       0.000597
 **** Fit      -0.000150
 **** Fit      -0.000667
 **** Fit       0.012163
 **** Fit       0.008704
 **** Fit       0.006398
 **** Fit       0.004746
 **** Fit       0.003465
 **** Fit       0.002388
 **** Fit       0.001425
 **** Fit       0.000542
 **** Fit      -0.000237
 **** Fit      -0.000814
 **** Fit       0.011818
 **** Fit       0.008862
 **** Fit       0.006789
 **** Fit       0.005231
 **** Fit       0.003963
 **** Fit       0.002844
 **** Fit       0.001785
 **** Fit       0.000736
 **** Fit      -0.000320
 **** Fit      -0.001352
 **** Fit       0.014307
 **** Fit       0.010935
 **** Fit       0.008547
 **** Fit       0.006765
 **** Fit       0.005345
 **** Fit       0.004123
 **** Fit       0.002985
 **** Fit       0.001847
 **** Fit       0.000642
 **** Fit      -0.000684
 **** Fit      -0.002183
 **** Fit      -0.003891
 **** Fit       0.014456
 **** Fit       0.011352
 **** Fit       0.009057
 **** Fit       0.007294
 **** Fit       0.005862
 **** Fit       0.004613
 **** Fit       0.003434
 **** Fit       0.002235
 **** Fit       0.000933
 **** Fit      -0.000562
 **** Fit      -0.002368
 **** Fit      -0.004660
 **** Fit       0.011888
 **** Fit       0.009575
 **** Fit       0.007756
 **** Fit       0.006261
 **** Fit       0.004949
 **** Fit       0.003703
 **** Fit       0.002422
 **** Fit       0.001002
 **** Fit      -0.000678
 **** Fit      -0.002793
 **** Fit      -0.005641
 **** Fit       0.011003
 **** Fit       0.008964
 **** Fit       0.007278
 **** Fit       0.005829
 **** Fit       0.004500
 **** Fit       0.003177
 **** Fit       0.001747
 **** Fit       0.000076
 **** Fit      -0.002017
 **** Fit      -0.004837
 **** Fit       0.008056
 **** Fit       0.006548
 **** Fit       0.005171
 **** Fit       0.003835
 **** Fit       0.002434
 **** Fit       0.000841
 **** Fit      -0.001111
 **** Fit      -0.003681
 **** Fit      -0.007336
 **** Fit       0.005907
 **** Fit       0.004525
 **** Fit       0.003107
 **** Fit       0.001535
 **** Fit      -0.000356
 **** Fit      -0.002820
 **** Fit      -0.006292
 **** Fit       0.003684
 **** Fit       0.002203
 **** Fit       0.000450
 **** Fit      -0.001792
 **** Fit      -0.004888
 **** Fit       0.002052
 **** Fit       0.000314
 **** Fit      -0.002011
 **** Fit      -0.005331
 **** Fit      -0.002513
 **** Fit      -0.001312
 **** Fit       0.000705
 **** Fit       0.003444
 **** Fit       0.006719
 **** Fit       0.010242
 **** Fit       0.013629
 **** Fit       0.016451
 **** Fit      -0.001078
 **** Fit      -0.001008
 **** Fit      -0.000447
 **** Fit       0.000655
 **** Fit       0.002281
 **** Fit       0.004346
 **** Fit       0.006694
 **** Fit       0.009101
 **** Fit       0.011301
 **** Fit       0.013019
 **** Fit       0.014040
 **** Fit       0.014256
 **** Fit      -0.000390
 **** Fit       0.000091
 **** Fit       0.000838
 **** Fit       0.001920
 **** Fit       0.003326
 **** Fit       0.004974
 **** Fit       0.006726
 **** Fit       0.008397
 **** Fit       0.009783
 **** Fit       0.010706
 **** Fit       0.011047
 **** Fit       0.010776
 **** Fit      -0.000776
 **** Fit      -0.000117
 **** Fit       0.000689
 **** Fit       0.001576
 **** Fit       0.002628
 **** Fit       0.003840
 **** Fit       0.005144
 **** Fit       0.006424
 **** Fit       0.007534
 **** Fit       0.008330
 **** Fit       0.008698
 **** Fit       0.008581
 **** Fit       0.007985
 **** Fit       0.006965
 **** Fit      -0.001046
 **** Fit      -0.000110
 **** Fit       0.001006
 **** Fit       0.002058
 **** Fit       0.003142
 **** Fit       0.004252
 **** Fit       0.005307
 **** Fit       0.006184
 **** Fit       0.006751
 **** Fit       0.006904
 **** Fit       0.006587
 **** Fit       0.005799
 **** Fit       0.004565
 **** Fit       0.002882
 **** Fit      -0.003777
 **** Fit      -0.001540
 **** Fit      -0.000271
 **** Fit       0.001087
 **** Fit       0.002244
 **** Fit       0.003299
 **** Fit       0.004234
 **** Fit       0.004956
 **** Fit       0.005347
 **** Fit       0.005305
 **** Fit       0.004772
 **** Fit       0.003727
 **** Fit       0.002145
 **** Fit      -0.000073
 **** Fit      -0.003167
 **** Fit      -0.004896
 **** Fit      -0.002101
 **** Fit      -0.000538
 **** Fit       0.001034
 **** Fit       0.002252
 **** Fit       0.003193
 **** Fit       0.003797
 **** Fit       0.003944
 **** Fit       0.003525
 **** Fit       0.002470
 **** Fit       0.000721
 **** Fit      -0.001836
 **** Fit      -0.005355
 **** Fit      -0.005924
 **** Fit      -0.002728
 **** Fit      -0.000864
 **** Fit       0.000911
 **** Fit       0.002032
 **** Fit       0.002456
 **** Fit       0.002017
 **** Fit       0.000577
 **** Fit      -0.001908
 **** Fit      -0.005231
 **** Fit      -0.008275
 **** Fit      -0.006642
 **** Fit      -0.003439
 **** Fit      -0.001209
 **** Fit       0.000507
 **** Fit       0.000369
 **** Fit      -0.001784
 **** Fit      -0.004322
 **** Fit      -0.003813
 **** Fit      -0.001531
 **** Fit      -0.016689
 **** Fit      -0.017763
 **** Fit      -0.015196
 **** Fit      -0.013876
 **** Fit      -0.015409
 **** Fit      -0.017628
 **** Fit      -0.018682
 **** Fit      -0.018639
 **** Fit      -0.016244
 **** Fit      -0.013256
 **** Fit      -0.010893
 **** Fit      -0.010277
 **** Fit      -0.011575
 **** Fit      -0.013906
 **** Fit      -0.016192
 **** Fit      -0.017906
 **** Fit      -0.019093
 **** Fit      -0.019824
 **** Fit      -0.019812
 **** Fit      -0.019318
 **** Fit      -0.017216
 **** Fit      -0.014282
 **** Fit      -0.010987
 **** Fit      -0.008036
 **** Fit      -0.006189
 **** Fit      -0.005939
 **** Fit      -0.007246
 **** Fit      -0.009565
 **** Fit      -0.012168
 **** Fit      -0.014475
 **** Fit      -0.016215
 **** Fit      -0.017433
 **** Fit      -0.018379
 **** Fit      -0.019273
 **** Fit      -0.020091
 **** Fit      -0.020580
 **** Fit      -0.020411
 **** Fit      -0.019790
 **** Fit      -0.017986
 **** Fit      -0.015353
 **** Fit      -0.012082
 **** Fit      -0.008505
 **** Fit      -0.005094
 **** Fit      -0.002401
 **** Fit      -0.000923
 **** Fit      -0.000925
 **** Fit      -0.002313
 **** Fit      -0.004674
 **** Fit      -0.007464
 **** Fit      -0.010185
 **** Fit      -0.012496
 **** Fit      -0.014230
 **** Fit      -0.015388
 **** Fit      -0.016129
 **** Fit      -0.016733
 **** Fit      -0.017472
 **** Fit      -0.018430
 **** Fit      -0.019472
 **** Fit      -0.020362
 **** Fit      -0.020854
 **** Fit      -0.020721
 **** Fit      -0.020034
 **** Fit      -0.018461
 **** Fit      -0.016063
 **** Fit      -0.012927
 **** Fit      -0.009234
 **** Fit      -0.005261
 **** Fit      -0.001395
 **** Fit      -0.000450
 **** Fit      -0.003565
 **** Fit      -0.006586
 **** Fit      -0.009213
 **** Fit      -0.011273
 **** Fit      -0.012700
 **** Fit      -0.013521
 **** Fit      -0.013873
 **** Fit      -0.016353
 **** Fit      -0.017743
 **** Fit      -0.019069
 **** Fit      -0.020139
 **** Fit      -0.020766
 **** Fit      -0.020777
 **** Fit      -0.020015
 **** Fit      -0.018659
 **** Fit      -0.016463
 **** Fit      -0.013470
 **** Fit      -0.009786
 **** Fit      -0.005588
 **** Fit      -0.001135
 **** Fit       0.002592
 **** Fit      -0.000885
 **** Fit      -0.004091
 **** Fit      -0.006801
 **** Fit      -0.008895
 **** Fit      -0.010316
 **** Fit      -0.011058
 **** Fit      -0.016524
 **** Fit      -0.018150
 **** Fit      -0.019467
 **** Fit      -0.020318
 **** Fit      -0.020543
 **** Fit      -0.019693
 **** Fit      -0.018601
 **** Fit      -0.016680
 **** Fit      -0.013950
 **** Fit      -0.010474
 **** Fit      -0.006355
 **** Fit      -0.001753
 **** Fit       0.001794
 **** Fit      -0.001460
 **** Fit      -0.004165
 **** Fit      -0.006245
 **** Fit      -0.007663
 **** Fit      -0.008388
 **** Fit      -0.016857
 **** Fit      -0.018420
 **** Fit      -0.019512
 **** Fit      -0.019975
 **** Fit      -0.019027
 **** Fit      -0.018193
 **** Fit      -0.016518
 **** Fit      -0.014017
 **** Fit      -0.010730
 **** Fit      -0.006728
 **** Fit      -0.002116
 **** Fit       0.002856
 **** Fit      -0.000119
 **** Fit      -0.002485
 **** Fit      -0.016842
 **** Fit      -0.018273
 **** Fit      -0.019036
 **** Fit      -0.017981
 **** Fit      -0.017381
 **** Fit      -0.015867
 **** Fit      -0.013458
 **** Fit      -0.010192
 **** Fit      -0.006128
 **** Fit      -0.001355
 **** Fit       0.007437
 **** Fit      -0.016471
 **** Fit      -0.017667
 **** Fit      -0.016536
 **** Fit      -0.016202
 **** Fit      -0.014903
 **** Fit      -0.012671
 **** Fit      -0.009545
 **** Fit      -0.005579
 **** Fit      -0.000849
 **** Fit      -0.015878
 **** Fit      -0.014702
 **** Fit      -0.014622
 **** Fit      -0.013510
 **** Fit      -0.011415
 **** Fit      -0.008388
 **** Fit      -0.004486
 **** Fit       0.000213
 **** Fit      -0.013679
 **** Fit      -0.012527
 **** Fit      -0.012665
 **** Fit      -0.011693
 **** Fit      -0.009685
 **** Fit      -0.006704
 **** Fit      -0.002820
 **** Fit       0.001871
 **** Fit      -0.010096
 **** Fit      -0.010387
 **** Fit      -0.009550
 **** Fit      -0.007672
 **** Fit      -0.004826
 **** Fit      -0.001098
 **** Fit       0.003396
 **** Fit      -0.007836
 **** Fit      -0.006979
 **** Fit      -0.005034
 **** Fit      -0.002095
 **** Fit       0.001717
 **** Fit       0.006229
 **** Fit      -0.001933
 **** Fit       0.001195
 **** Fit       0.005132
 **** Fit       0.001085
 **** Fit       0.001787
 **** Fit       0.000977
 **** Fit       0.004271
 **** Fit       0.006051
 **** Fit       0.006331
 **** Fit       0.005105
 **** Fit       0.002341
 **** Fit       0.000114
 **** Fit       0.004318
 **** Fit       0.007355
 **** Fit       0.009281
 **** Fit       0.010140
 **** Fit       0.009950
 **** Fit       0.008707
 **** Fit       0.006378
 **** Fit       0.002901
 **** Fit       0.004041
 **** Fit       0.007698
 **** Fit       0.010393
 **** Fit       0.012192
 **** Fit       0.013142
 **** Fit       0.013270
 **** Fit       0.012585
 **** Fit       0.011073
 **** Fit       0.008700
 **** Fit       0.005408
 **** Fit       0.003282
 **** Fit       0.007313
 **** Fit       0.010482
 **** Fit       0.012870
 **** Fit       0.014535
 **** Fit       0.015520
 **** Fit       0.015853
 **** Fit       0.015549
 **** Fit       0.014608
 **** Fit       0.013020
 **** Fit       0.010761
 **** Fit       0.007787
 **** Fit       0.003409
 **** Fit       0.007650
 **** Fit       0.011047
 **** Fit       0.013691
 **** Fit       0.015649
 **** Fit       0.016971
 **** Fit       0.017693
 **** Fit       0.017840
 **** Fit       0.017424
 **** Fit       0.016451
 **** Fit       0.014917
 **** Fit       0.012811
 **** Fit       0.010111
 **** Fit       0.003377
 **** Fit       0.007697
 **** Fit       0.011217
 **** Fit       0.014025
 **** Fit       0.016192
 **** Fit       0.017770
 **** Fit       0.018798
 **** Fit       0.019307
 **** Fit       0.019315
 **** Fit       0.018837
 **** Fit       0.017883
 **** Fit       0.016458
 **** Fit       0.014570
 **** Fit       0.012226
 **** Fit       0.003842
 **** Fit       0.008118
 **** Fit       0.011638
 **** Fit       0.014482
 **** Fit       0.016718
 **** Fit       0.018395
 **** Fit       0.019555
 **** Fit       0.020228
 **** Fit       0.020437
 **** Fit       0.020200
 **** Fit       0.019533
 **** Fit       0.018454
 **** Fit       0.016983
 **** Fit       0.015154
 **** Fit       0.005343
 **** Fit       0.009476
 **** Fit       0.012874
 **** Fit       0.015609
 **** Fit       0.017740
 **** Fit       0.019317
 **** Fit       0.020377
 **** Fit       0.020952
 **** Fit       0.021066
 **** Fit       0.020743
 **** Fit       0.020006
 **** Fit       0.018886
 **** Fit       0.017434
 **** Fit       0.007331
 **** Fit       0.011209
 **** Fit       0.014377
 **** Fit       0.016892
 **** Fit       0.018803
 **** Fit       0.020154
 **** Fit       0.020981
 **** Fit       0.021314
 **** Fit       0.021183
 **** Fit       0.020619
 **** Fit       0.019664
 **** Fit       0.018391
 **** Fit       0.009230
 **** Fit       0.012734
 **** Fit       0.015582
 **** Fit       0.017807
 **** Fit       0.019444
 **** Fit       0.020527
 **** Fit       0.021089
 **** Fit       0.021161
 **** Fit       0.020779
 **** Fit       0.019988
 **** Fit       0.008246
 **** Fit       0.011933
 **** Fit       0.014975
 **** Fit       0.017350
 **** Fit       0.019070
 **** Fit       0.020161
 **** Fit       0.020653
 **** Fit       0.020586
 **** Fit       0.011203
 **** Fit       0.014269
 **** Fit       0.016707
 **** Fit       0.018451
 **** Fit       0.019492
 **** Fit       0.019850
 -----------------------------------------------------------------
 Leave Link  602 at Tue May  2 10:48:07 2017, MaxMem=   33554432 cpu:       3.0

 Test job not archived.
 1\1\GINC-N0715\FOpt\RHF\6-31G(d)\C13H28O7\JSMITH07\02-May-2017\0\\#HF/
 6-31G* SCF=tight Test Pop=MK iop(6/33=2) NoSymm iop(6/42=6) opt\\remar
 k line goes here\\0,1\C,-3.8922846329,1.2167403855,0.0842863182\H,-3.4
 966879144,0.2126845131,0.1511497382\H,-3.5348492495,1.6764573398,-0.83
 50680886\H,-4.9786781446,1.1662260251,0.0454315409\O,-3.4554146245,1.9
 163244823,1.2060531037\C,-3.8892648496,3.2399216557,1.2616297645\H,-4.
 9761077328,3.2941357038,1.2744130934\H,-3.5390526518,3.8019732345,0.39
 80445224\C,-3.3327187024,3.8527964513,2.5293935098\H,-2.2465103501,3.8
 000266045,2.5164813854\H,-3.6835044624,3.2922106009,3.3928127693\O,-3.
 7667426149,5.1781602881,2.5857091567\C,-3.3341618332,5.8878026588,3.70
 62714937\H,-2.2479357789,5.9265846619,3.7464906097\H,-3.6848893268,5.4
 187828692,4.6227971726\C,-3.8925746849,7.2916587524,3.6041010014\H,-3.
 5417690532,7.7607670722,2.6876561707\H,-4.9788029233,7.2529368679,3.56
 40116129\O,-3.460216972,8.0019634909,4.724681567\C,-3.8941201912,9.326
 8265056,4.7809053456\H,-4.9804151915,9.3798266941,4.7938390262\H,-3.54
 33960088,9.8876518757,3.9174931593\C,-3.3370882856,9.9389276375,6.0490
 185123\H,-2.2508211768,9.8860013789,6.0360927448\H,-3.6878325805,9.378
 1802654,6.912433416\O,-3.7710253945,11.263926684,6.1052631545\C,-3.338
 6193406,11.9741177104,7.2258622549\H,-2.2524227401,12.0129469405,7.266
 0070789\H,-3.6894391775,11.5051384509,8.1423372325\C,-3.897156029,13.3
 779031928,7.1234258111\H,-3.5463494953,13.8468450739,6.2068859064\H,-4
 .9833829267,13.339023973,7.0832177795\O,-3.4648137694,14.0880449444,8.
 2439113676\C,-3.8986371308,15.4131030185,8.3002922821\H,-4.9849473169,
 15.4659539466,8.3130618652\H,-3.5478703869,15.973737383,7.4367658892\C
 ,-3.3418490088,16.0256401605,9.5683385972\H,-2.2555750208,15.972669602
 7,9.5555804113\H,-3.6925409393,15.4649289015,10.4318070836\O,-3.775947
 5956,17.3504252336,9.6241034991\C,-3.3436196565,18.0610478692,10.74486
 64813\H,-2.2574515047,18.1005730199,10.785324727\H,-3.694575644,17.592
 7729247,11.6616591973\C,-3.9007373257,19.4648683517,10.644691901\H,-4.
 9856810691,19.4190779256,10.6030586805\H,-3.5481910805,19.9270081629,9
 .7265029506\O,-3.4586048235,20.1661047598,11.7760981535\H,-3.787125027
 2,21.0531098147,11.7513151295\\Version=EM64L-G09RevA.02\HF=-1032.52749
 19\RMSD=4.374e-09\RMSF=2.743e-05\Dipole=-0.4087794,0.2754888,-0.510735
 1\Quadrupole=-1.4688459,19.0288953,-17.5600494,-11.7486898,-2.7734939,
 -1.3918446\PG=C01 [X(C13H28O7)]\\@


 FROM AN ANONYMOUS WRITER, ON PERSPECTIVE:

 MAN, DESPITE HIS ARTISTIC PRETENSIONS, HIS SOPHISTICATION AND MANY 
 ACCOMPLISHMENTS, OWES THE FACT OF HIS EXISTENCE TO A SIX-INCH LAYER OF 
 TOPSOIL AND THE FACT THAT IT RAINS.
 Job cpu time:  0 days  0 hours  7 minutes 24.6 seconds.
 File lengths (MBytes):  RWF=    202 Int=      0 D2E=      0 Chk=     12 Scr=      4
 Normal termination of Gaussian 09 at Tue May  2 10:48:07 2017.
