 Entering Gaussian System, Link 0=g09
 Input=PEG.com
 Output=PEG.log
 Initial command:
 /gscratch/pfaendtner/codes/G09/g09/l1.exe /gscratch/pfaendtner/josh/gaussian/Gau-22296.inp -scrdir=/gscratch/pfaendtner/josh/gaussian/
 Entering Link 1 = /gscratch/pfaendtner/codes/G09/g09/l1.exe PID=     22301.
  
 Copyright (c) 1988,1990,1992,1993,1995,1998,2003,2009, Gaussian, Inc.
                  All Rights Reserved.
  
 This is part of the Gaussian(R) 09 program.  It is based on
 the Gaussian(R) 03 system (copyright 2003, Gaussian, Inc.),
 the Gaussian(R) 98 system (copyright 1998, Gaussian, Inc.),
 the Gaussian(R) 94 system (copyright 1995, Gaussian, Inc.),
 the Gaussian 92(TM) system (copyright 1992, Gaussian, Inc.),
 the Gaussian 90(TM) system (copyright 1990, Gaussian, Inc.),
 the Gaussian 88(TM) system (copyright 1988, Gaussian, Inc.),
 the Gaussian 86(TM) system (copyright 1986, Carnegie Mellon
 University), and the Gaussian 82(TM) system (copyright 1983,
 Carnegie Mellon University). Gaussian is a federally registered
 trademark of Gaussian, Inc.
  
 This software contains proprietary and confidential information,
 including trade secrets, belonging to Gaussian, Inc.
  
 This software is provided under written license and may be
 used, copied, transmitted, or stored only in accord with that
 written license.
  
 The following legend is applicable only to US Government
 contracts under FAR:
  
                    RESTRICTED RIGHTS LEGEND
  
 Use, reproduction and disclosure by the US Government is
 subject to restrictions as set forth in subparagraphs (a)
 and (c) of the Commercial Computer Software - Restricted
 Rights clause in FAR 52.227-19.
  
 Gaussian, Inc.
 340 Quinnipiac St., Bldg. 40, Wallingford CT 06492
  
  
 ---------------------------------------------------------------
 Warning -- This program may not be used in any manner that
 competes with the business of Gaussian, Inc. or will provide
 assistance to any competitor of Gaussian, Inc.  The licensee
 of this program is prohibited from giving any competitor of
 Gaussian, Inc. access to this program.  By using this program,
 the user acknowledges that Gaussian, Inc. is engaged in the
 business of creating and licensing software in the field of
 computational chemistry and represents and warrants to the
 licensee that it is not a competitor of Gaussian, Inc. and that
 it will not use this program in any manner prohibited above.
 ---------------------------------------------------------------
  

 Cite this work as:
 Gaussian 09, Revision A.02,
 M. J. Frisch, G. W. Trucks, H. B. Schlegel, G. E. Scuseria, 
 M. A. Robb, J. R. Cheeseman, G. Scalmani, V. Barone, B. Mennucci, 
 G. A. Petersson, H. Nakatsuji, M. Caricato, X. Li, H. P. Hratchian, 
 A. F. Izmaylov, J. Bloino, G. Zheng, J. L. Sonnenberg, M. Hada, 
 M. Ehara, K. Toyota, R. Fukuda, J. Hasegawa, M. Ishida, T. Nakajima, 
 Y. Honda, O. Kitao, H. Nakai, T. Vreven, J. A. Montgomery, Jr., 
 J. E. Peralta, F. Ogliaro, M. Bearpark, J. J. Heyd, E. Brothers, 
 K. N. Kudin, V. N. Staroverov, R. Kobayashi, J. Normand, 
 K. Raghavachari, A. Rendell, J. C. Burant, S. S. Iyengar, J. Tomasi, 
 M. Cossi, N. Rega, J. M. Millam, M. Klene, J. E. Knox, J. B. Cross, 
 V. Bakken, C. Adamo, J. Jaramillo, R. Gomperts, R. E. Stratmann, 
 O. Yazyev, A. J. Austin, R. Cammi, C. Pomelli, J. W. Ochterski, 
 R. L. Martin, K. Morokuma, V. G. Zakrzewski, G. A. Voth, 
 P. Salvador, J. J. Dannenberg, S. Dapprich, A. D. Daniels, 
 O. Farkas, J. B. Foresman, J. V. Ortiz, J. Cioslowski, 
 and D. J. Fox, Gaussian, Inc., Wallingford CT, 2009.
 
 ******************************************
 Gaussian 09:  EM64L-G09RevA.02 11-Jun-2009
                 2-May-2017 
 ******************************************
 %chk=molecule
 -------------------------------------------------------------------
 #HF/6-31G* SCF=tight Test Pop=MK iop(6/33=2) NoSymm iop(6/42=6) opt
 -------------------------------------------------------------------
 1/18=20,19=15,38=1/1,3;
 2/9=110,12=2,15=1,17=6,18=5,40=1/2;
 3/5=1,6=6,7=1,11=9,16=1,25=1,30=1,71=1/1,2,3;
 4//1;
 5/5=2,32=2,38=5/2;
 6/7=2,8=2,9=2,10=2,15=8,20=1,28=1,33=2,42=6/1,2;
 7/30=1/1,2,3,16;
 1/18=20,19=15/3(2);
 2/9=110,15=1/2;
 99//99;
 2/9=110,15=1/2;
 3/5=1,6=6,7=1,11=9,16=1,25=1,30=1,71=1/1,2,3;
 4/5=5,16=3/1;
 5/5=2,32=2,38=5/2;
 7/30=1/1,2,3,16;
 1/18=20,19=15/3(-5);
 2/9=110,15=1/2;
 6/7=2,8=2,9=2,10=2,15=8,19=2,20=1,28=1,33=2,42=6/1,2;
 99/9=1/99;
 ---------------------
 remark line goes here
 ---------------------
 Symbolic Z-matrix:
 Charge =  0 Multiplicity = 1
 C                    -3.87097   1.00979  -0.00036 
 H                    -3.51456   0.00089  -0.00058 
 H                    -3.51282   1.51476  -0.87307 
 H                    -4.94097   1.01006  -0.00202 
 O                    -3.39594   1.68288   1.16848 
 C                    -3.87227   3.03122   1.16877 
 H                    -4.94227   3.03149   1.16711 
 H                    -3.51412   3.5362    0.29606 
 C                    -3.3607    3.75609   2.42752 
 H                    -2.2907    3.75582   2.42918 
 H                    -3.71885   3.25111   3.30023 
 O                    -3.83703   5.10443   2.42781 
 C                    -3.362     5.77753   3.59665 
 H                    -2.292     5.77726   3.59831 
 H                    -3.72015   5.27255   4.46937 
 C                    -3.87497   7.22958   3.59697 
 H                    -3.51682   7.73456   2.72425 
 H                    -4.94496   7.22985   3.59531 
 O                    -3.39994   7.90268   4.76581 
 C                    -3.87627   9.25102   4.7661 
 H                    -4.94626   9.25129   4.76444 
 H                    -3.51812   9.756     3.89339 
 C                    -3.3647    9.97589   6.02485 
 H                    -2.2947    9.97562   6.02651 
 H                    -3.72285   9.47091   6.89756 
 O                    -3.84102   11.32423   6.02514 
 C                    -3.366     11.99732   7.19398 
 H                    -2.296     11.99705   7.19564 
 H                    -3.72414   11.49234   8.0667 
 C                    -3.87897   13.44938   7.1943 
 H                    -3.52066   13.95463   6.32181 
 H                    -4.94897   13.44991   7.1926 
 O                    -3.40382   14.12187   8.36344 
 C                    -3.87941   15.47047   8.36486 
 H                    -4.94941   15.47132   8.36326 
 H                    -3.52104   15.97596   7.49254 
 C                    -3.36739   16.19403   9.62418 
 H                    -2.29739   16.19317   9.62578 
 H                    -3.72576   15.68853   10.49649 
 O                    -3.84298   17.54262   9.6256 
 C                    -3.36785   18.21511   10.79475 
 H                    -2.29785   18.21453   10.79648 
 H                    -3.7262    17.70988   11.66723 
 C                    -3.88039   19.66731   10.79561 
 H                    -4.95039   19.66789   10.79385 
 H                    -3.52202   20.17255   9.92314 
 O                    -3.40528   20.33979   11.96477 
 C                    -3.88086   21.68839   11.96618 
 H                    -4.95086   21.68925   11.96457 
 H                    -3.52248   22.19389   11.09387 
 C                    -3.36884   22.41195   13.22551 
 H                    -2.29884   22.41109   13.22711 
 H                    -3.72723   21.90646   14.09782 
 O                    -3.84443   23.76055   13.22692 
 H                    -3.52547   24.21201   14.01181 
 

 GradGradGradGradGradGradGradGradGradGradGradGradGradGradGradGradGradGrad
 Berny optimization.
 Initialization pass.
                           ----------------------------
                           !    Initial Parameters    !
                           ! (Angstroms and Degrees)  !
 --------------------------                            --------------------------
 ! Name  Definition              Value          Derivative Info.                !
 --------------------------------------------------------------------------------
 ! R1    R(1,2)                  1.07           estimate D2E/DX2                !
 ! R2    R(1,3)                  1.07           estimate D2E/DX2                !
 ! R3    R(1,4)                  1.07           estimate D2E/DX2                !
 ! R4    R(1,5)                  1.43           estimate D2E/DX2                !
 ! R5    R(5,6)                  1.43           estimate D2E/DX2                !
 ! R6    R(6,7)                  1.07           estimate D2E/DX2                !
 ! R7    R(6,8)                  1.07           estimate D2E/DX2                !
 ! R8    R(6,9)                  1.54           estimate D2E/DX2                !
 ! R9    R(9,10)                 1.07           estimate D2E/DX2                !
 ! R10   R(9,11)                 1.07           estimate D2E/DX2                !
 ! R11   R(9,12)                 1.43           estimate D2E/DX2                !
 ! R12   R(12,13)                1.43           estimate D2E/DX2                !
 ! R13   R(13,14)                1.07           estimate D2E/DX2                !
 ! R14   R(13,15)                1.07           estimate D2E/DX2                !
 ! R15   R(13,16)                1.54           estimate D2E/DX2                !
 ! R16   R(16,17)                1.07           estimate D2E/DX2                !
 ! R17   R(16,18)                1.07           estimate D2E/DX2                !
 ! R18   R(16,19)                1.43           estimate D2E/DX2                !
 ! R19   R(19,20)                1.43           estimate D2E/DX2                !
 ! R20   R(20,21)                1.07           estimate D2E/DX2                !
 ! R21   R(20,22)                1.07           estimate D2E/DX2                !
 ! R22   R(20,23)                1.54           estimate D2E/DX2                !
 ! R23   R(23,24)                1.07           estimate D2E/DX2                !
 ! R24   R(23,25)                1.07           estimate D2E/DX2                !
 ! R25   R(23,26)                1.43           estimate D2E/DX2                !
 ! R26   R(26,27)                1.43           estimate D2E/DX2                !
 ! R27   R(27,28)                1.07           estimate D2E/DX2                !
 ! R28   R(27,29)                1.07           estimate D2E/DX2                !
 ! R29   R(27,30)                1.54           estimate D2E/DX2                !
 ! R30   R(30,31)                1.07           estimate D2E/DX2                !
 ! R31   R(30,32)                1.07           estimate D2E/DX2                !
 ! R32   R(30,33)                1.43           estimate D2E/DX2                !
 ! R33   R(33,34)                1.43           estimate D2E/DX2                !
 ! R34   R(34,35)                1.07           estimate D2E/DX2                !
 ! R35   R(34,36)                1.07           estimate D2E/DX2                !
 ! R36   R(34,37)                1.54           estimate D2E/DX2                !
 ! R37   R(37,38)                1.07           estimate D2E/DX2                !
 ! R38   R(37,39)                1.07           estimate D2E/DX2                !
 ! R39   R(37,40)                1.43           estimate D2E/DX2                !
 ! R40   R(40,41)                1.43           estimate D2E/DX2                !
 ! R41   R(41,42)                1.07           estimate D2E/DX2                !
 ! R42   R(41,43)                1.07           estimate D2E/DX2                !
 ! R43   R(41,44)                1.54           estimate D2E/DX2                !
 ! R44   R(44,45)                1.07           estimate D2E/DX2                !
 ! R45   R(44,46)                1.07           estimate D2E/DX2                !
 ! R46   R(44,47)                1.43           estimate D2E/DX2                !
 ! R47   R(47,48)                1.43           estimate D2E/DX2                !
 ! R48   R(48,49)                1.07           estimate D2E/DX2                !
 ! R49   R(48,50)                1.07           estimate D2E/DX2                !
 ! R50   R(48,51)                1.54           estimate D2E/DX2                !
 ! R51   R(51,52)                1.07           estimate D2E/DX2                !
 ! R52   R(51,53)                1.07           estimate D2E/DX2                !
 ! R53   R(51,54)                1.43           estimate D2E/DX2                !
 ! R54   R(54,55)                0.96           estimate D2E/DX2                !
 ! A1    A(2,1,3)              109.4712         estimate D2E/DX2                !
 ! A2    A(2,1,4)              109.4712         estimate D2E/DX2                !
 ! A3    A(2,1,5)              109.4712         estimate D2E/DX2                !
 ! A4    A(3,1,4)              109.4712         estimate D2E/DX2                !
 ! A5    A(3,1,5)              109.4712         estimate D2E/DX2                !
 ! A6    A(4,1,5)              109.4712         estimate D2E/DX2                !
 ! A7    A(1,5,6)              109.4712         estimate D2E/DX2                !
 ! A8    A(5,6,7)              109.4712         estimate D2E/DX2                !
 ! A9    A(5,6,8)              109.4712         estimate D2E/DX2                !
 ! A10   A(5,6,9)              109.4712         estimate D2E/DX2                !
 ! A11   A(7,6,8)              109.4712         estimate D2E/DX2                !
 ! A12   A(7,6,9)              109.4712         estimate D2E/DX2                !
 ! A13   A(8,6,9)              109.4712         estimate D2E/DX2                !
 ! A14   A(6,9,10)             109.4712         estimate D2E/DX2                !
 ! A15   A(6,9,11)             109.4712         estimate D2E/DX2                !
 ! A16   A(6,9,12)             109.4712         estimate D2E/DX2                !
 ! A17   A(10,9,11)            109.4712         estimate D2E/DX2                !
 ! A18   A(10,9,12)            109.4712         estimate D2E/DX2                !
 ! A19   A(11,9,12)            109.4712         estimate D2E/DX2                !
 ! A20   A(9,12,13)            109.4712         estimate D2E/DX2                !
 ! A21   A(12,13,14)           109.4712         estimate D2E/DX2                !
 ! A22   A(12,13,15)           109.4712         estimate D2E/DX2                !
 ! A23   A(12,13,16)           109.4712         estimate D2E/DX2                !
 ! A24   A(14,13,15)           109.4712         estimate D2E/DX2                !
 ! A25   A(14,13,16)           109.4712         estimate D2E/DX2                !
 ! A26   A(15,13,16)           109.4712         estimate D2E/DX2                !
 ! A27   A(13,16,17)           109.4712         estimate D2E/DX2                !
 ! A28   A(13,16,18)           109.4712         estimate D2E/DX2                !
 ! A29   A(13,16,19)           109.4712         estimate D2E/DX2                !
 ! A30   A(17,16,18)           109.4712         estimate D2E/DX2                !
 ! A31   A(17,16,19)           109.4712         estimate D2E/DX2                !
 ! A32   A(18,16,19)           109.4712         estimate D2E/DX2                !
 ! A33   A(16,19,20)           109.4712         estimate D2E/DX2                !
 ! A34   A(19,20,21)           109.4712         estimate D2E/DX2                !
 ! A35   A(19,20,22)           109.4712         estimate D2E/DX2                !
 ! A36   A(19,20,23)           109.4712         estimate D2E/DX2                !
 ! A37   A(21,20,22)           109.4712         estimate D2E/DX2                !
 ! A38   A(21,20,23)           109.4712         estimate D2E/DX2                !
 ! A39   A(22,20,23)           109.4712         estimate D2E/DX2                !
 ! A40   A(20,23,24)           109.4712         estimate D2E/DX2                !
 ! A41   A(20,23,25)           109.4712         estimate D2E/DX2                !
 ! A42   A(20,23,26)           109.4712         estimate D2E/DX2                !
 ! A43   A(24,23,25)           109.4712         estimate D2E/DX2                !
 ! A44   A(24,23,26)           109.4712         estimate D2E/DX2                !
 ! A45   A(25,23,26)           109.4712         estimate D2E/DX2                !
 ! A46   A(23,26,27)           109.4712         estimate D2E/DX2                !
 ! A47   A(26,27,28)           109.4712         estimate D2E/DX2                !
 ! A48   A(26,27,29)           109.4712         estimate D2E/DX2                !
 ! A49   A(26,27,30)           109.4712         estimate D2E/DX2                !
 ! A50   A(28,27,29)           109.4712         estimate D2E/DX2                !
 ! A51   A(28,27,30)           109.4713         estimate D2E/DX2                !
 ! A52   A(29,27,30)           109.4712         estimate D2E/DX2                !
 ! A53   A(27,30,31)           109.483          estimate D2E/DX2                !
 ! A54   A(27,30,32)           109.4854         estimate D2E/DX2                !
 ! A55   A(27,30,33)           109.4452         estimate D2E/DX2                !
 ! A56   A(31,30,32)           109.4713         estimate D2E/DX2                !
 ! A57   A(31,30,33)           109.4712         estimate D2E/DX2                !
 ! A58   A(32,30,33)           109.4712         estimate D2E/DX2                !
 ! A59   A(30,33,34)           109.5            estimate D2E/DX2                !
 ! A60   A(33,34,35)           109.4712         estimate D2E/DX2                !
 ! A61   A(33,34,36)           109.4712         estimate D2E/DX2                !
 ! A62   A(33,34,37)           109.4712         estimate D2E/DX2                !
 ! A63   A(35,34,36)           109.4712         estimate D2E/DX2                !
 ! A64   A(35,34,37)           109.4713         estimate D2E/DX2                !
 ! A65   A(36,34,37)           109.4712         estimate D2E/DX2                !
 ! A66   A(34,37,38)           109.4712         estimate D2E/DX2                !
 ! A67   A(34,37,39)           109.4712         estimate D2E/DX2                !
 ! A68   A(34,37,40)           109.4712         estimate D2E/DX2                !
 ! A69   A(38,37,39)           109.4712         estimate D2E/DX2                !
 ! A70   A(38,37,40)           109.4713         estimate D2E/DX2                !
 ! A71   A(39,37,40)           109.4712         estimate D2E/DX2                !
 ! A72   A(37,40,41)           109.5            estimate D2E/DX2                !
 ! A73   A(40,41,42)           109.4712         estimate D2E/DX2                !
 ! A74   A(40,41,43)           109.4712         estimate D2E/DX2                !
 ! A75   A(40,41,44)           109.4712         estimate D2E/DX2                !
 ! A76   A(42,41,43)           109.4712         estimate D2E/DX2                !
 ! A77   A(42,41,44)           109.4713         estimate D2E/DX2                !
 ! A78   A(43,41,44)           109.4712         estimate D2E/DX2                !
 ! A79   A(41,44,45)           109.4712         estimate D2E/DX2                !
 ! A80   A(41,44,46)           109.4712         estimate D2E/DX2                !
 ! A81   A(41,44,47)           109.4712         estimate D2E/DX2                !
 ! A82   A(45,44,46)           109.4712         estimate D2E/DX2                !
 ! A83   A(45,44,47)           109.4713         estimate D2E/DX2                !
 ! A84   A(46,44,47)           109.4712         estimate D2E/DX2                !
 ! A85   A(44,47,48)           109.5            estimate D2E/DX2                !
 ! A86   A(47,48,49)           109.4712         estimate D2E/DX2                !
 ! A87   A(47,48,50)           109.4712         estimate D2E/DX2                !
 ! A88   A(47,48,51)           109.4712         estimate D2E/DX2                !
 ! A89   A(49,48,50)           109.4712         estimate D2E/DX2                !
 ! A90   A(49,48,51)           109.4713         estimate D2E/DX2                !
 ! A91   A(50,48,51)           109.4712         estimate D2E/DX2                !
 ! A92   A(48,51,52)           109.4712         estimate D2E/DX2                !
 ! A93   A(48,51,53)           109.4712         estimate D2E/DX2                !
 ! A94   A(48,51,54)           109.4712         estimate D2E/DX2                !
 ! A95   A(52,51,53)           109.4712         estimate D2E/DX2                !
 ! A96   A(52,51,54)           109.4713         estimate D2E/DX2                !
 ! A97   A(53,51,54)           109.4712         estimate D2E/DX2                !
 ! A98   A(51,54,55)           109.5            estimate D2E/DX2                !
 ! D1    D(2,1,5,6)            180.0            estimate D2E/DX2                !
 ! D2    D(3,1,5,6)             60.0            estimate D2E/DX2                !
 ! D3    D(4,1,5,6)            -60.0            estimate D2E/DX2                !
 ! D4    D(1,5,6,7)             60.0            estimate D2E/DX2                !
 ! D5    D(1,5,6,8)            -60.0            estimate D2E/DX2                !
 ! D6    D(1,5,6,9)            180.0            estimate D2E/DX2                !
 ! D7    D(5,6,9,10)            60.0            estimate D2E/DX2                !
 ! D8    D(5,6,9,11)           -60.0            estimate D2E/DX2                !
 ! D9    D(5,6,9,12)          -180.0            estimate D2E/DX2                !
 ! D10   D(7,6,9,10)           180.0            estimate D2E/DX2                !
 ! D11   D(7,6,9,11)            60.0            estimate D2E/DX2                !
 ! D12   D(7,6,9,12)           -60.0            estimate D2E/DX2                !
 ! D13   D(8,6,9,10)           -60.0            estimate D2E/DX2                !
 ! D14   D(8,6,9,11)           180.0            estimate D2E/DX2                !
 ! D15   D(8,6,9,12)            60.0            estimate D2E/DX2                !
 ! D16   D(6,9,12,13)          180.0            estimate D2E/DX2                !
 ! D17   D(10,9,12,13)         -60.0            estimate D2E/DX2                !
 ! D18   D(11,9,12,13)          60.0            estimate D2E/DX2                !
 ! D19   D(9,12,13,14)          60.0            estimate D2E/DX2                !
 ! D20   D(9,12,13,15)         -60.0            estimate D2E/DX2                !
 ! D21   D(9,12,13,16)         180.0            estimate D2E/DX2                !
 ! D22   D(12,13,16,17)        -60.0            estimate D2E/DX2                !
 ! D23   D(12,13,16,18)         60.0            estimate D2E/DX2                !
 ! D24   D(12,13,16,19)        180.0            estimate D2E/DX2                !
 ! D25   D(14,13,16,17)         60.0            estimate D2E/DX2                !
 ! D26   D(14,13,16,18)       -180.0            estimate D2E/DX2                !
 ! D27   D(14,13,16,19)        -60.0            estimate D2E/DX2                !
 ! D28   D(15,13,16,17)       -180.0            estimate D2E/DX2                !
 ! D29   D(15,13,16,18)        -60.0            estimate D2E/DX2                !
 ! D30   D(15,13,16,19)         60.0            estimate D2E/DX2                !
 ! D31   D(13,16,19,20)        180.0            estimate D2E/DX2                !
 ! D32   D(17,16,19,20)         60.0            estimate D2E/DX2                !
 ! D33   D(18,16,19,20)        -60.0            estimate D2E/DX2                !
 ! D34   D(16,19,20,21)         60.0            estimate D2E/DX2                !
 ! D35   D(16,19,20,22)        -60.0            estimate D2E/DX2                !
 ! D36   D(16,19,20,23)        180.0            estimate D2E/DX2                !
 ! D37   D(19,20,23,24)         60.0            estimate D2E/DX2                !
 ! D38   D(19,20,23,25)        -60.0            estimate D2E/DX2                !
 ! D39   D(19,20,23,26)       -180.0            estimate D2E/DX2                !
 ! D40   D(21,20,23,24)        180.0            estimate D2E/DX2                !
 ! D41   D(21,20,23,25)         60.0            estimate D2E/DX2                !
 ! D42   D(21,20,23,26)        -60.0            estimate D2E/DX2                !
 ! D43   D(22,20,23,24)        -60.0            estimate D2E/DX2                !
 ! D44   D(22,20,23,25)        180.0            estimate D2E/DX2                !
 ! D45   D(22,20,23,26)         60.0            estimate D2E/DX2                !
 ! D46   D(20,23,26,27)        180.0            estimate D2E/DX2                !
 ! D47   D(24,23,26,27)        -60.0            estimate D2E/DX2                !
 ! D48   D(25,23,26,27)         60.0            estimate D2E/DX2                !
 ! D49   D(23,26,27,28)         60.0001         estimate D2E/DX2                !
 ! D50   D(23,26,27,29)        -59.9999         estimate D2E/DX2                !
 ! D51   D(23,26,27,30)       -179.9999         estimate D2E/DX2                !
 ! D52   D(26,27,30,31)        -60.0182         estimate D2E/DX2                !
 ! D53   D(26,27,30,32)         59.9978         estimate D2E/DX2                !
 ! D54   D(26,27,30,33)        179.9905         estimate D2E/DX2                !
 ! D55   D(28,27,30,31)         59.9818         estimate D2E/DX2                !
 ! D56   D(28,27,30,32)        179.9977         estimate D2E/DX2                !
 ! D57   D(28,27,30,33)        -60.0095         estimate D2E/DX2                !
 ! D58   D(29,27,30,31)        179.9818         estimate D2E/DX2                !
 ! D59   D(29,27,30,32)        -60.0022         estimate D2E/DX2                !
 ! D60   D(29,27,30,33)         59.9905         estimate D2E/DX2                !
 ! D61   D(27,30,33,34)        179.9952         estimate D2E/DX2                !
 ! D62   D(31,30,33,34)         59.9967         estimate D2E/DX2                !
 ! D63   D(32,30,33,34)        -60.0033         estimate D2E/DX2                !
 ! D64   D(30,33,34,35)         59.9982         estimate D2E/DX2                !
 ! D65   D(30,33,34,36)        -60.0018         estimate D2E/DX2                !
 ! D66   D(30,33,34,37)        179.9982         estimate D2E/DX2                !
 ! D67   D(33,34,37,38)         59.9999         estimate D2E/DX2                !
 ! D68   D(33,34,37,39)        -60.0001         estimate D2E/DX2                !
 ! D69   D(33,34,37,40)        179.9999         estimate D2E/DX2                !
 ! D70   D(35,34,37,38)        179.9999         estimate D2E/DX2                !
 ! D71   D(35,34,37,39)         59.9999         estimate D2E/DX2                !
 ! D72   D(35,34,37,40)        -60.0001         estimate D2E/DX2                !
 ! D73   D(36,34,37,38)        -60.0001         estimate D2E/DX2                !
 ! D74   D(36,34,37,39)        179.9999         estimate D2E/DX2                !
 ! D75   D(36,34,37,40)         59.9999         estimate D2E/DX2                !
 ! D76   D(34,37,40,41)       -179.999          estimate D2E/DX2                !
 ! D77   D(38,37,40,41)        -59.9991         estimate D2E/DX2                !
 ! D78   D(39,37,40,41)         60.001          estimate D2E/DX2                !
 ! D79   D(37,40,41,42)         60.0003         estimate D2E/DX2                !
 ! D80   D(37,40,41,43)        -59.9997         estimate D2E/DX2                !
 ! D81   D(37,40,41,44)       -179.9997         estimate D2E/DX2                !
 ! D82   D(40,41,44,45)         59.9989         estimate D2E/DX2                !
 ! D83   D(40,41,44,46)        -60.0011         estimate D2E/DX2                !
 ! D84   D(40,41,44,47)        179.9989         estimate D2E/DX2                !
 ! D85   D(42,41,44,45)        179.9989         estimate D2E/DX2                !
 ! D86   D(42,41,44,46)         59.9989         estimate D2E/DX2                !
 ! D87   D(42,41,44,47)        -60.0011         estimate D2E/DX2                !
 ! D88   D(43,41,44,45)        -60.0011         estimate D2E/DX2                !
 ! D89   D(43,41,44,46)        179.9989         estimate D2E/DX2                !
 ! D90   D(43,41,44,47)         59.9989         estimate D2E/DX2                !
 ! D91   D(41,44,47,48)        179.9991         estimate D2E/DX2                !
 ! D92   D(45,44,47,48)        -60.0009         estimate D2E/DX2                !
 ! D93   D(46,44,47,48)         59.9991         estimate D2E/DX2                !
 ! D94   D(44,47,48,49)         59.9999         estimate D2E/DX2                !
 ! D95   D(44,47,48,50)        -60.0001         estimate D2E/DX2                !
 ! D96   D(44,47,48,51)        179.9999         estimate D2E/DX2                !
 ! D97   D(47,48,51,52)         60.0001         estimate D2E/DX2                !
 ! D98   D(47,48,51,53)        -59.9999         estimate D2E/DX2                !
 ! D99   D(47,48,51,54)       -179.9999         estimate D2E/DX2                !
 ! D100  D(49,48,51,52)       -179.9999         estimate D2E/DX2                !
 ! D101  D(49,48,51,53)         60.0001         estimate D2E/DX2                !
 ! D102  D(49,48,51,54)        -59.9999         estimate D2E/DX2                !
 ! D103  D(50,48,51,52)        -59.9999         estimate D2E/DX2                !
 ! D104  D(50,48,51,53)       -179.9999         estimate D2E/DX2                !
 ! D105  D(50,48,51,54)         60.0001         estimate D2E/DX2                !
 ! D106  D(48,51,54,55)       -179.9997         estimate D2E/DX2                !
 ! D107  D(52,51,54,55)        -59.9998         estimate D2E/DX2                !
 ! D108  D(53,51,54,55)         60.0003         estimate D2E/DX2                !
 --------------------------------------------------------------------------------
 Trust Radius=3.00D-01 FncErr=1.00D-07 GrdErr=1.00D-07
 Number of steps in this run= 270 maximum allowed number of steps= 330.
 GradGradGradGradGradGradGradGradGradGradGradGradGradGradGradGradGradGrad

 Symmetry turned off by external request.
 Stoichiometry    C15H32O8
 Framework group  C1[X(C15H32O8)]
 Deg. of freedom   159
 Full point group                 C1      NOp   1
                         Z-Matrix orientation:                         
 ---------------------------------------------------------------------
 Center     Atomic      Atomic             Coordinates (Angstroms)
 Number     Number       Type             X           Y           Z
 ---------------------------------------------------------------------
      1          6           0       -3.870968    1.009786   -0.000362
      2          1           0       -3.514556    0.000890   -0.000580
      3          1           0       -3.512821    1.514765   -0.873075
      4          1           0       -4.940967    1.010057   -0.002020
      5          8           0       -3.395941    1.682883    1.168479
      6          6           0       -3.872267    3.031220    1.168770
      7          1           0       -4.942266    3.031491    1.167112
      8          1           0       -3.514120    3.536199    0.296057
      9          6           0       -3.360700    3.756093    2.427522
     10          1           0       -2.290702    3.755822    2.429180
     11          1           0       -3.718847    3.251114    3.300234
     12          8           0       -3.837026    5.104430    2.427813
     13          6           0       -3.362000    5.777527    3.596654
     14          1           0       -2.292001    5.777256    3.598312
     15          1           0       -3.720147    5.272548    4.469366
     16          6           0       -3.874966    7.229583    3.596967
     17          1           0       -3.516819    7.734561    2.724255
     18          1           0       -4.944965    7.229854    3.595309
     19          8           0       -3.399939    7.902679    4.765808
     20          6           0       -3.876266    9.251017    4.766099
     21          1           0       -4.946264    9.251288    4.764441
     22          1           0       -3.518118    9.755995    3.893387
     23          6           0       -3.364698    9.975890    6.024851
     24          1           0       -2.294700    9.975619    6.026509
     25          1           0       -3.722846    9.470911    6.897564
     26          8           0       -3.841024   11.324227    6.025142
     27          6           0       -3.365998   11.997324    7.193983
     28          1           0       -2.295999   11.997054    7.195640
     29          1           0       -3.724143   11.492344    8.066696
     30          6           0       -3.878967   13.449378    7.194297
     31          1           0       -3.520664   13.954634    6.321809
     32          1           0       -4.948966   13.449912    7.192601
     33          8           0       -3.403818   14.121870    8.363437
     34          6           0       -3.879412   15.470465    8.364858
     35          1           0       -4.949411   15.471318    8.363256
     36          1           0       -3.521037   15.975965    7.492541
     37          6           0       -3.367386   16.194029    9.624177
     38          1           0       -2.297387   16.193174    9.625779
     39          1           0       -3.725762   15.688530   10.496494
     40          8           0       -3.842979   17.542624    9.625597
     41          6           0       -3.367846   18.215110   10.794746
     42          1           0       -2.297847   18.214530   10.796484
     43          1           0       -3.726204   17.709881   11.667228
     44          6           0       -3.880394   19.667313   10.795609
     45          1           0       -4.950393   19.667893   10.793853
     46          1           0       -3.522021   20.172547    9.923137
     47          8           0       -3.405281   20.339792   11.964771
     48          6           0       -3.880864   21.688391   11.966184
     49          1           0       -4.950862   21.689253   11.964574
     50          1           0       -3.522477   22.193886   11.093869
     51          6           0       -3.368841   22.411953   13.225506
     52          1           0       -2.298843   22.411092   13.227115
     53          1           0       -3.727226   21.906457   14.097821
     54          8           0       -3.844427   23.760551   13.226921
     55          1           0       -3.525468   24.212006   14.011812
 ---------------------------------------------------------------------
 Rotational constants (GHZ):      4.5444099      0.0231472      0.0230785
 Standard basis: 6-31G(d) (6D, 7F)
 Integral buffers will be    131072 words long.
 Raffenetti 1 integral format.
 Two-electron integral symmetry is turned off.
   409 basis functions,   772 primitive gaussians,   409 cartesian basis functions
    93 alpha electrons       93 beta electrons
       nuclear repulsion energy      1717.8824187693 Hartrees.
 NAtoms=   55 NActive=   55 NUniq=   55 SFac= 7.50D-01 NAtFMM=   80 NAOKFM=F Big=F
 One-electron integrals computed using PRISM.
 NBasis=   409 RedAO= T  NBF=   409
 NBsUse=   409 1.00D-06 NBFU=   409
 Harris functional with IExCor=  205 diagonalized for initial guess.
 ExpMin= 1.61D-01 ExpMax= 5.48D+03 ExpMxC= 8.25D+02 IAcc=1 IRadAn=         1 AccDes= 0.00D+00
 HarFok:  IExCor=  205 AccDes= 0.00D+00 IRadAn=         1 IDoV= 1
 ScaDFX=  1.000000  1.000000  1.000000  1.000000
 FoFCou: FMM=F IPFlag=           0 FMFlag=      100000 FMFlg1=           0
         NFxFlg=           0 DoJE=T BraDBF=F KetDBF=T FulRan=T
         Omega=  0.000000  0.000000  1.000000  0.000000  0.000000 ICntrl=     500 IOpCl=  0
         NMat0=    1 NMatS0=    1 NMatT0=    0 NMatD0=    1 NMtDS0=    0 NMtDT0=    0
         I1Cent=           4 NGrid=           0.
 Symmetry not used in FoFCou.
 Requested convergence on RMS density matrix=1.00D-08 within 128 cycles.
 Requested convergence on MAX density matrix=1.00D-06.
 Requested convergence on             energy=1.00D-06.
 No special actions if energy rises.
 Integral accuracy reduced to 1.0D-05 until final iterations.
 Initial convergence to 1.0D-05 achieved.  Increase integral accuracy.
 SCF Done:  E(RHF) =  -1185.41282427     A.U. after   12 cycles
             Convg  =    0.3561D-08             -V/T =  2.0017

 **********************************************************************

            Population analysis using the SCF density.

 **********************************************************************

 Alpha  occ. eigenvalues --  -20.56594 -20.56589 -20.56578 -20.56554 -20.56519
 Alpha  occ. eigenvalues --  -20.56440 -20.56053 -20.56053 -11.27350 -11.27347
 Alpha  occ. eigenvalues --  -11.27332 -11.27315 -11.27306 -11.27292 -11.27288
 Alpha  occ. eigenvalues --  -11.27275 -11.27273 -11.27249 -11.27201 -11.27201
 Alpha  occ. eigenvalues --  -11.27101 -11.26975 -11.26554  -1.37932  -1.37682
 Alpha  occ. eigenvalues --   -1.37344  -1.36949  -1.36543  -1.36197  -1.35905
 Alpha  occ. eigenvalues --   -1.35189  -1.05322  -1.04297  -1.02739  -1.00741
 Alpha  occ. eigenvalues --   -0.98430  -0.96000  -0.93795  -0.91134  -0.84807
 Alpha  occ. eigenvalues --   -0.84541  -0.84529  -0.84189  -0.84004  -0.83872
 Alpha  occ. eigenvalues --   -0.83753  -0.70919  -0.70432  -0.69995  -0.69689
 Alpha  occ. eigenvalues --   -0.68694  -0.68215  -0.67455  -0.66901  -0.65989
 Alpha  occ. eigenvalues --   -0.65262  -0.65186  -0.64329  -0.64135  -0.63276
 Alpha  occ. eigenvalues --   -0.62577  -0.62197  -0.61398  -0.60533  -0.59902
 Alpha  occ. eigenvalues --   -0.59656  -0.58842  -0.58550  -0.56978  -0.56573
 Alpha  occ. eigenvalues --   -0.54689  -0.54494  -0.53000  -0.52741  -0.51729
 Alpha  occ. eigenvalues --   -0.51639  -0.50770  -0.49587  -0.47438  -0.47330
 Alpha  occ. eigenvalues --   -0.47313  -0.47272  -0.47227  -0.47067  -0.46885
 Alpha  occ. eigenvalues --   -0.44720  -0.42984  -0.42952  -0.42919  -0.42887
 Alpha  occ. eigenvalues --   -0.42842  -0.42786  -0.42570
 Alpha virt. eigenvalues --    0.21644   0.22882   0.23261   0.23483   0.23656
 Alpha virt. eigenvalues --    0.23867   0.24088   0.24189   0.28070   0.28293
 Alpha virt. eigenvalues --    0.28643   0.28802   0.29084   0.29496   0.29575
 Alpha virt. eigenvalues --    0.30072   0.30580   0.30708   0.31628   0.31831
 Alpha virt. eigenvalues --    0.32218   0.32823   0.33154   0.33642   0.34428
 Alpha virt. eigenvalues --    0.34930   0.35464   0.35551   0.36168   0.36443
 Alpha virt. eigenvalues --    0.36788   0.36918   0.37088   0.37456   0.37496
 Alpha virt. eigenvalues --    0.37587   0.37662   0.37715   0.38438   0.38566
 Alpha virt. eigenvalues --    0.40735   0.40982   0.41581   0.42079   0.42375
 Alpha virt. eigenvalues --    0.43770   0.44393   0.44604   0.46060   0.46113
 Alpha virt. eigenvalues --    0.46298   0.49797   0.53837   0.57553   0.66858
 Alpha virt. eigenvalues --    0.69141   0.71584   0.73768   0.75673   0.75757
 Alpha virt. eigenvalues --    0.75850   0.76267   0.76850   0.77332   0.77508
 Alpha virt. eigenvalues --    0.78149   0.78511   0.78674   0.78981   0.79123
 Alpha virt. eigenvalues --    0.79593   0.80225   0.81127   0.81465   0.81834
 Alpha virt. eigenvalues --    0.82420   0.82812   0.82940   0.83177   0.83920
 Alpha virt. eigenvalues --    0.87716   0.88311   0.90086   0.91505   0.92953
 Alpha virt. eigenvalues --    0.93669   0.94862   0.95317   0.96796   0.99784
 Alpha virt. eigenvalues --    1.00103   1.00341   1.00791   1.00867   1.01322
 Alpha virt. eigenvalues --    1.01325   1.02071   1.02274   1.05449   1.05899
 Alpha virt. eigenvalues --    1.07017   1.08366   1.09451   1.10668   1.11145
 Alpha virt. eigenvalues --    1.11788   1.12315   1.12575   1.13446   1.14315
 Alpha virt. eigenvalues --    1.14857   1.15018   1.15832   1.16807   1.18643
 Alpha virt. eigenvalues --    1.19028   1.19121   1.19431   1.19656   1.19739
 Alpha virt. eigenvalues --    1.19934   1.20077   1.20217   1.20306   1.20455
 Alpha virt. eigenvalues --    1.20595   1.20898   1.21198   1.21847   1.21910
 Alpha virt. eigenvalues --    1.22340   1.23389   1.24700   1.25250   1.25844
 Alpha virt. eigenvalues --    1.26471   1.26855   1.27033   1.27937   1.29549
 Alpha virt. eigenvalues --    1.30039   1.32157   1.36343   1.39207   1.39358
 Alpha virt. eigenvalues --    1.39511   1.40933   1.41946   1.42599   1.42904
 Alpha virt. eigenvalues --    1.43343   1.45376   1.47095   1.47775   1.47804
 Alpha virt. eigenvalues --    1.52910   1.56217   1.59526   1.60962   1.63018
 Alpha virt. eigenvalues --    1.64878   1.65331   1.65828   1.66158   1.66163
 Alpha virt. eigenvalues --    1.66390   1.66919   1.67883   1.68020   1.68882
 Alpha virt. eigenvalues --    1.69026   1.69931   1.69947   1.70051   1.70727
 Alpha virt. eigenvalues --    1.72314   1.73419   1.75793   1.76438   1.78921
 Alpha virt. eigenvalues --    1.79305   1.80329   1.81053   1.81449   1.81600
 Alpha virt. eigenvalues --    1.83449   1.87703   1.90073   1.95741   2.01526
 Alpha virt. eigenvalues --    2.03689   2.06766   2.11490   2.11689   2.11760
 Alpha virt. eigenvalues --    2.12457   2.12572   2.12824   2.13362   2.14055
 Alpha virt. eigenvalues --    2.14532   2.14828   2.15564   2.15805   2.16068
 Alpha virt. eigenvalues --    2.17298   2.19163   2.19848   2.21782   2.27207
 Alpha virt. eigenvalues --    2.28347   2.30060   2.31826   2.33174   2.34003
 Alpha virt. eigenvalues --    2.34890   2.34955   2.35888   2.36104   2.36911
 Alpha virt. eigenvalues --    2.37065   2.38189   2.38462   2.38924   2.40102
 Alpha virt. eigenvalues --    2.40744   2.41589   2.41764   2.43903   2.44005
 Alpha virt. eigenvalues --    2.46444   2.47344   2.47821   2.48376   2.48987
 Alpha virt. eigenvalues --    2.49171   2.49670   2.50183   2.50923   2.51899
 Alpha virt. eigenvalues --    2.52274   2.53656   2.55059   2.55813   2.56885
 Alpha virt. eigenvalues --    2.58658   2.60008   2.61039   2.61779   2.63133
 Alpha virt. eigenvalues --    2.65339   2.66425   2.67631   2.67764   2.69239
 Alpha virt. eigenvalues --    2.71457   2.72976   2.74954   2.75234   2.81509
 Alpha virt. eigenvalues --    2.84129   2.84700   2.85168   2.85826   2.86430
 Alpha virt. eigenvalues --    2.86808   2.86882   2.86954   2.89996   2.91488
 Alpha virt. eigenvalues --    2.93041   3.00348   3.02223   3.03031   3.03925
 Alpha virt. eigenvalues --    3.04123   3.05149   3.06194   3.06454   3.06935
 Alpha virt. eigenvalues --    3.07063   3.09583   3.11957   3.13655   3.17369
 Alpha virt. eigenvalues --    3.25136   3.34313   3.37603   3.40001   3.41938
 Alpha virt. eigenvalues --    3.42318   3.44213   3.44324   4.12878   4.22482
 Alpha virt. eigenvalues --    4.27162   4.34308   4.42544   4.50428   4.56854
 Alpha virt. eigenvalues --    4.61346   4.64456   4.65549   4.65803   4.65870
 Alpha virt. eigenvalues --    4.65967   4.66572   4.66643   4.68638   4.82758
 Alpha virt. eigenvalues --    4.84064   4.86080   4.88471   4.90848   4.92874
 Alpha virt. eigenvalues --    4.94241
          Condensed to atoms (all electrons):
 Mulliken atomic charges:
              1
     1  C   -0.162237
     2  H    0.182243
     3  H    0.150561
     4  H    0.150561
     5  O   -0.644021
     6  C    0.008394
     7  H    0.158022
     8  H    0.158022
     9  C    0.010615
    10  H    0.162012
    11  H    0.162012
    12  O   -0.669700
    13  C    0.011526
    14  H    0.161606
    15  H    0.161606
    16  C    0.010978
    17  H    0.161426
    18  H    0.161426
    19  O   -0.669303
    20  C    0.011298
    21  H    0.161601
    22  H    0.161600
    23  C    0.011011
    24  H    0.161778
    25  H    0.161779
    26  O   -0.669409
    27  C    0.011160
    28  H    0.161748
    29  H    0.161753
    30  C    0.011109
    31  H    0.161764
    32  H    0.161772
    33  O   -0.669474
    34  C    0.011088
    35  H    0.161808
    36  H    0.161808
    37  C    0.011255
    38  H    0.161623
    39  H    0.161623
    40  O   -0.669282
    41  C    0.010915
    42  H    0.161479
    43  H    0.161479
    44  C    0.010913
    45  H    0.161974
    46  H    0.161973
    47  O   -0.668160
    48  C    0.012123
    49  H    0.162996
    50  H    0.162995
    51  C   -0.002930
    52  H    0.158418
    53  H    0.158419
    54  O   -0.760817
    55  H    0.443059
 Sum of Mulliken atomic charges =   0.00000
 Mulliken charges with hydrogens summed into heavy atoms:
              1
     1  C    0.321129
     5  O   -0.644021
     6  C    0.324437
     9  C    0.334639
    12  O   -0.669700
    13  C    0.334737
    16  C    0.333830
    19  O   -0.669303
    20  C    0.334499
    23  C    0.334569
    26  O   -0.669409
    27  C    0.334661
    30  C    0.334645
    33  O   -0.669474
    34  C    0.334704
    37  C    0.334501
    40  O   -0.669282
    41  C    0.333872
    44  C    0.334860
    47  O   -0.668160
    48  C    0.338114
    51  C    0.313907
    54  O   -0.317758
 Sum of Mulliken charges with hydrogens summed into heavy atoms =   0.00000
 DipInt: DoE/N= T F RetVal/Mat= T F Init=T NMatP=  1 IDeriv=0 Min/MaxMlt=  0  4
 Entering OneElI...
 OneElI was handed    33125539 working-precision words.
 Multipole integrals L=0 to 4 MinM= 0 MaxM= 0.
 Requested accuracy = 0.1000D-12
 PrsmSu:  NPrtUS=   1 ThrOK=F IAlg=1
 PRISM was handed    32604194 working-precision words and  5477 shell-pairs
 IPart=  0 NShTot=        5477 NBatch=          35 AvBLen=       156.5
 Electronic moments (au):
       -186.00000000       1277.66210782      -4293.43831612      -2418.06659922
      -9007.76192221    -131288.91085060     -42465.86902391      29505.21853320
      16541.84701775     -74337.82420487      65060.13014693   -4519731.79247858
    -836983.19060323     903941.99040945    -208049.23763220    -116137.95427860
     290435.91120844   -1460109.68319501   -2561451.51810407     510110.90265850
    -481122.16269222 -166045912.62079470  -17613823.13412793    1502243.04371947
     835083.69123772   31173663.01982794  -94093676.15265957    5722259.61777056
  -30646799.53914520   -6383222.01923317   -2038078.92025308  -53574425.81461093
   -3590834.21704702   17615350.37759067   10011820.36234005
 Electronic spatial extent (au):  <R**2>=         182762.5418
 DipInt: DoE/N= F T RetVal/Mat= T F Init=T NMatP=  1 IDeriv=0 Min/MaxMlt=  0  4
 Nuclear    moments (au):
        186.00000000      -1277.62073860       4293.36662137       2418.09294512
       8902.62602092     131181.79865102      42380.84269396     -29492.70469251
     -16537.04933429      74355.39606317     -62899.10367729    4512348.17521946
     833718.57435380    -902630.37706078     205474.51944292     114716.15001284
    -289714.50027702    1458654.51952417    2560914.08080986    -509948.04969672
     450718.76061583  165595527.38405270   17500062.22910571   -1450915.26191060
    -806589.68427571  -31095937.14450822   94006215.05212140   -5696234.99872393
   30560286.92638320    6296668.83796719    2008279.37743966   53521911.56018864
    3546173.20675179  -17597619.70541225   -9994523.77012797
 Total      moments (au):
          0.00000000          0.04136922         -0.07169475          0.02634590
       -105.13590128       -107.11219958        -85.02632994         12.51384069
          4.79768347         17.57185830       2161.02646964      -7383.61725912
      -3264.61624943       1311.61334867      -2574.71818928      -1421.80426577
        721.41093142      -1455.16367083       -537.43729420        162.85296178
     -30403.40207639    -450385.23674202    -113760.90502222      51327.78180887
      28494.00696201      77725.87531972     -87461.10053816      26024.61904662
     -86512.61276200     -86553.18126597     -29799.54281342     -52514.25442229
     -44661.01029523      17730.67217843      17296.59221208
 Traceless Quadrup. (au):
         -6.04442435         -8.02072265         14.06514699         12.51384069
          4.79768347         17.57185830
 Charge=              0.0000 electrons
 Dipole moment (field-independent basis, Debye):
    X=              0.1052    Y=             -0.1822    Z=              0.0670  Tot=              0.2208
 Quadrupole moment (field-independent basis, Debye-Ang):
   XX=           -141.4114   YY=           -144.0696   ZZ=           -114.3633
   XY=             16.8315   XZ=              6.4530   YZ=             23.6347
 Traceless Quadrupole moment (field-independent basis, Debye-Ang):
   XX=             -8.1300   YY=            -10.7881   ZZ=             18.9181
   XY=             16.8315   XZ=              6.4530   YZ=             23.6347
 Octapole moment (field-independent basis, Debye-Ang**2):
  XXX=           1538.1353  YYY=          -5255.3740  ZZZ=          -2323.6279  XYY=            933.5558
  XXY=          -1832.5851  XXZ=          -1011.9854  XZZ=            513.4725  YZZ=          -1035.7294
  YYZ=           -382.5271  XYZ=            115.9125
 Hexadecapole moment (field-independent basis, Debye-Ang**3):
 XXXX=         -11451.3784 YYYY=        -169636.6656 ZZZZ=         -42847.8090 XXXY=          19332.5026
 XXXZ=          10732.2086 YYYX=          29275.2898 YYYZ=         -32942.0422 ZZZX=           9802.1188
 ZZZY=         -32584.7962 XXYY=         -32600.0763 XXZZ=         -11223.9360 YYZZ=         -19779.3850
 XXYZ=         -16821.4769 YYXZ=           6678.2209 ZZXY=           6514.7256
 N-N= 1.717882418769D+03 E-N=-6.220710594869D+03  KE= 1.183457314730D+03
 Entering OneElI...
 OneElI was handed    32789193 working-precision words.
 Calculate electrostatic properties
    NBasis =   409  MinDer = 0  MaxDer = 0
    NGrid  =    55  NMatD  =   1
 Requested accuracy = 0.1000D-12
 PrsmSu:  NPrtUS=   1 ThrOK=F IAlg=1
 PRISM was handed    32316494 working-precision words and  4619 shell-pairs
 IPart=  0 NShTot=      254045 NBatch=        4619 AvBLen=        55.0
 --------------------------------------------------------
       Center         ----      EFG at Nuclei      ----
                      3XX-RR        3YY-RR        3ZZ-RR
 --------------------------------------------------------
     1   Atom        0.123719      0.070862     -0.194582
     2   Atom        0.116665     -0.279469      0.162804
     3   Atom        0.119817      0.052765     -0.172582
     4   Atom       -0.334086      0.169595      0.164491
     5   Atom        1.308536     -1.266799     -0.041737
     6   Atom        0.140632     -0.298324      0.157692
     7   Atom       -0.330635      0.158007      0.172628
     8   Atom        0.117881      0.048296     -0.166177
     9   Atom        0.146193     -0.311760      0.165567
    10   Atom       -0.330039      0.157290      0.172749
    11   Atom        0.117578      0.048115     -0.165694
    12   Atom        1.295373     -1.255596     -0.039777
    13   Atom        0.146180      0.028743     -0.174923
    14   Atom       -0.329998      0.164269      0.165729
    15   Atom        0.117659      0.049122     -0.166781
    16   Atom        0.146020      0.030542     -0.176562
    17   Atom        0.117696      0.049063     -0.166759
    18   Atom       -0.330039      0.164354      0.165684
    19   Atom        1.296239     -1.260691     -0.035548
    20   Atom        0.145882     -0.309576      0.163695
    21   Atom       -0.329996      0.157268      0.172728
    22   Atom        0.117679      0.047895     -0.165574
    23   Atom        0.146015     -0.310215      0.164200
    24   Atom       -0.329974      0.157233      0.172741
    25   Atom        0.117672      0.047908     -0.165579
    26   Atom        1.296281     -1.259535     -0.036747
    27   Atom        0.146328      0.029492     -0.175820
    28   Atom       -0.329975      0.164273      0.165701
    29   Atom        0.117683      0.049054     -0.166737
    30   Atom        0.146354      0.029757     -0.176111
    31   Atom        0.117626      0.048950     -0.166577
    32   Atom       -0.329979      0.164293      0.165686
    33   Atom        1.296792     -1.259089     -0.037703
    34   Atom        0.146260     -0.310309      0.164049
    35   Atom       -0.329970      0.157246      0.172724
    36   Atom        0.117601      0.047681     -0.165282
    37   Atom        0.146123     -0.309958      0.163836
    38   Atom       -0.329996      0.157272      0.172724
    39   Atom        0.117612      0.047677     -0.165289
    40   Atom        1.296958     -1.259821     -0.037137
    41   Atom        0.146104      0.030372     -0.176475
    42   Atom       -0.330025      0.164344      0.165682
    43   Atom        0.117631      0.048963     -0.166594
    44   Atom        0.146584      0.029118     -0.175702
    45   Atom       -0.329947      0.164258      0.165688
    46   Atom        0.117592      0.048989     -0.166581
    47   Atom        1.297360     -1.258471     -0.038889
    48   Atom        0.147109     -0.310005      0.162896
    49   Atom       -0.329924      0.157228      0.172696
    50   Atom        0.117527      0.047815     -0.165342
    51   Atom        0.147648     -0.310921      0.163274
    52   Atom       -0.331223      0.159358      0.171865
    53   Atom        0.117498      0.048372     -0.165870
    54   Atom        1.272432     -1.270989     -0.001444
    55   Atom        0.174551      0.063422     -0.237973
 --------------------------------------------------------
                        XY            XZ            YZ
 --------------------------------------------------------
     1   Atom       -0.092422     -0.154777     -0.217931
     2   Atom        0.158776     -0.007273     -0.004288
     3   Atom       -0.085854      0.134655      0.186811
     4   Atom       -0.000764     -0.003248     -0.011659
     5   Atom        0.501490     -0.874750     -1.081808
     6   Atom        0.173174     -0.033002     -0.017535
     7   Atom       -0.000012     -0.002212     -0.005399
     8   Atom       -0.075981      0.138754      0.187429
     9   Atom        0.180187     -0.032691     -0.018371
    10   Atom       -0.000213     -0.002008     -0.005250
    11   Atom       -0.075582      0.138935      0.187010
    12   Atom        0.501787     -0.869411     -1.065377
    13   Atom       -0.059569     -0.171015     -0.213952
    14   Atom        0.001188     -0.001266     -0.009335
    15   Atom       -0.082624      0.134802      0.186360
    16   Atom       -0.060819     -0.171545     -0.214797
    17   Atom       -0.082715      0.134747      0.186422
    18   Atom        0.001287     -0.001242     -0.009379
    19   Atom        0.505037     -0.868184     -1.063734
    20   Atom        0.178867     -0.033367     -0.019057
    21   Atom        0.000002     -0.001984     -0.005328
    22   Atom       -0.075638      0.138827      0.187063
    23   Atom        0.179243     -0.033219     -0.018912
    24   Atom       -0.000034     -0.001989     -0.005325
    25   Atom       -0.075611      0.138846      0.187030
    26   Atom        0.504176     -0.868690     -1.064491
    27   Atom       -0.060174     -0.171450     -0.214624
    28   Atom        0.001248     -0.001244     -0.009375
    29   Atom       -0.082665      0.134764      0.186362
    30   Atom       -0.060223     -0.171523     -0.214648
    31   Atom       -0.082749      0.134785      0.186419
    32   Atom        0.001366     -0.001263     -0.009372
    33   Atom        0.503587     -0.868445     -1.065119
    34   Atom        0.178955     -0.033163     -0.019409
    35   Atom        0.000237     -0.001962     -0.005338
    36   Atom       -0.075759      0.138864      0.187135
    37   Atom        0.178772     -0.033182     -0.019395
    38   Atom        0.000262     -0.001967     -0.005335
    39   Atom       -0.075771      0.138854      0.187165
    40   Atom        0.504002     -0.868222     -1.064968
    41   Atom       -0.060509     -0.171571     -0.214559
    42   Atom        0.001423     -0.001295     -0.009375
    43   Atom       -0.082784      0.134786      0.186454
    44   Atom       -0.059830     -0.171491     -0.214568
    45   Atom        0.001338     -0.001308     -0.009369
    46   Atom       -0.082730      0.134823      0.186361
    47   Atom        0.502882     -0.869059     -1.066297
    48   Atom        0.179244     -0.034915     -0.019916
    49   Atom        0.000066     -0.001968     -0.005340
    50   Atom       -0.075743      0.138930      0.187010
    51   Atom        0.175163     -0.030735     -0.025145
    52   Atom        0.001350     -0.002479     -0.004697
    53   Atom       -0.076460      0.137782      0.188922
    54   Atom        0.515907     -0.834461     -1.028191
    55   Atom       -0.093929     -0.213536     -0.274702
 --------------------------------------------------------


 ---------------------------------------------------------------------------------
              Nuclear Quadrupole in Principal Axis System
 ---------------------------------------------------------------------------------

       Atom             a.u.   MegaHertz   Gauss  10(-4) cm-1        Axes

              Baa    -0.3813   -51.171   -18.259   -17.069  0.3361  0.4638  0.8197
     1 C(13)  Bbb     0.1855    24.887     8.880     8.301  0.8173  0.2889 -0.4985
              Bcc     0.1959    26.284     9.379     8.767 -0.4680  0.8376 -0.2820
 
              Baa    -0.3353  -178.878   -63.828   -59.667 -0.3314  0.9435  0.0033
     2 H(1)   Bbb     0.1580    84.326    30.090    28.128  0.4713  0.1625  0.8669
              Bcc     0.1772    94.552    33.739    31.539  0.8173  0.2888 -0.4985
 
              Baa    -0.3341  -178.264   -63.609   -59.463 -0.3315 -0.4689  0.8187
     3 H(1)   Bbb     0.1551    82.768    29.534    27.609  0.3406  0.7498  0.5673
              Bcc     0.1790    95.496    34.075    31.854  0.8798 -0.4669  0.0889
 
              Baa    -0.3341  -178.264   -63.609   -59.463  1.0000  0.0017  0.0066
     4 H(1)   Bbb     0.1551    82.768    29.534    27.609 -0.0062  0.6272  0.7788
              Bcc     0.1790    95.496    34.075    31.854  0.0028  0.7788 -0.6272
 
              Baa    -1.8975   137.300    48.992    45.798  0.0026  0.8634  0.5045
     5 O(17)  Bbb    -0.1218     8.815     3.145     2.940  0.5761 -0.4137  0.7049
              Bcc     2.0193  -146.114   -52.137   -48.739  0.8173  0.2888 -0.4985
 
              Baa    -0.3585   -48.105   -17.165   -16.046 -0.3271  0.9449  0.0112
     6 C(13)  Bbb     0.1365    18.320     6.537     6.111  0.4743  0.1539  0.8668
              Bcc     0.2220    29.785    10.628     9.935  0.8173  0.2888 -0.4985
 
              Baa    -0.3306  -176.416   -62.950   -58.846  1.0000  0.0001  0.0044
     7 H(1)   Bbb     0.1562    83.357    29.744    27.805 -0.0014  0.9499  0.3126
              Bcc     0.1744    93.059    33.206    31.041 -0.0042 -0.3126  0.9499
 
              Baa    -0.3306  -176.416   -62.950   -58.846 -0.3325 -0.4708  0.8171
     8 H(1)   Bbb     0.1562    83.357    29.744    27.805 -0.1933  0.8821  0.4296
              Bcc     0.1744    93.059    33.206    31.041  0.9231  0.0151  0.3844
 
              Baa    -0.3742   -50.219   -17.919   -16.751 -0.3265  0.9451  0.0124
     9 C(13)  Bbb     0.1444    19.381     6.916     6.465  0.4747  0.1526  0.8668
              Bcc     0.2298    30.838    11.004    10.287  0.8173  0.2888 -0.4985
 
              Baa    -0.3300  -176.097   -62.836   -58.740  1.0000  0.0005  0.0040
    10 H(1)   Bbb     0.1557    83.062    29.639    27.706 -0.0016  0.9559  0.2938
              Bcc     0.1744    93.036    33.197    31.033 -0.0037 -0.2938  0.9559
 
              Baa    -0.3300  -176.097   -62.836   -58.740 -0.3331 -0.4706  0.8171
    11 H(1)   Bbb     0.1557    83.062    29.638    27.706 -0.2114  0.8817  0.4217
              Bcc     0.1744    93.036    33.197    31.033  0.9189  0.0323  0.3932
 
              Baa    -1.8743   135.623    48.394    45.239  0.0010  0.8646  0.5025
    12 O(17)  Bbb    -0.1287     9.311     3.322     3.106  0.5762 -0.4112  0.7064
              Bcc     2.0030  -144.934   -51.716   -48.345  0.8173  0.2888 -0.4985
 
              Baa    -0.3706   -49.734   -17.746   -16.589  0.3247  0.4838  0.8127
    13 C(13)  Bbb     0.1412    18.946     6.760     6.320 -0.4759  0.8261 -0.3017
              Bcc     0.2294    30.788    10.986    10.270  0.8173  0.2888 -0.4985
 
              Baa    -0.3300  -176.074   -62.828   -58.732  1.0000 -0.0024  0.0025
    14 H(1)   Bbb     0.1556    83.039    29.631    27.699  0.0000  0.7341  0.6790
              Bcc     0.1744    93.035    33.197    31.033 -0.0034 -0.6790  0.7341
 
              Baa    -0.3300  -176.074   -62.828   -58.732 -0.3329 -0.4734  0.8155
    15 H(1)   Bbb     0.1556    83.039    29.631    27.699  0.2067  0.8072  0.5530
              Bcc     0.1744    93.035    33.197    31.033  0.9200 -0.3526  0.1709
 
              Baa    -0.3726   -50.004   -17.843   -16.680  0.3255  0.4824  0.8132
    16 C(13)  Bbb     0.1435    19.254     6.870     6.422 -0.4754  0.8270 -0.3002
              Bcc     0.2292    30.750    10.973    10.257  0.8173  0.2888 -0.4985
 
              Baa    -0.3300  -176.096   -62.836   -58.739 -0.3329 -0.4736  0.8154
    17 H(1)   Bbb     0.1556    83.030    29.627    27.696  0.2099  0.8058  0.5537
              Bcc     0.1744    93.067    33.208    31.044  0.9193 -0.3555  0.1688
 
              Baa    -0.3300  -176.096   -62.836   -58.739  1.0000 -0.0026  0.0025
    18 H(1)   Bbb     0.1556    83.030    29.627    27.696  0.0002  0.7317  0.6817
              Bcc     0.1744    93.067    33.208    31.044 -0.0035 -0.6817  0.7317
 
              Baa    -1.8756   135.719    48.428    45.271 -0.0010  0.8659  0.5001
    19 O(17)  Bbb    -0.1286     9.306     3.321     3.104  0.5762 -0.4083  0.7081
              Bcc     2.0042  -145.026   -51.749   -48.375  0.8173  0.2888 -0.4985
 
              Baa    -0.3715   -49.854   -17.789   -16.630 -0.3259  0.9453  0.0133
    20 C(13)  Bbb     0.1421    19.065     6.803     6.359  0.4751  0.1516  0.8668
              Bcc     0.2294    30.789    10.986    10.270  0.8173  0.2888 -0.4985
 
              Baa    -0.3300  -176.074   -62.828   -58.732  1.0000  0.0000  0.0039
    21 H(1)   Bbb     0.1556    83.027    29.626    27.695 -0.0012  0.9549  0.2971
              Bcc     0.1744    93.048    33.202    31.037 -0.0038 -0.2971  0.9549
 
              Baa    -0.3300  -176.074   -62.828   -58.732 -0.3329 -0.4710  0.8169
    22 H(1)   Bbb     0.1556    83.027    29.626    27.695 -0.2084  0.8816  0.4234
              Bcc     0.1744    93.048    33.202    31.037  0.9196  0.0293  0.3916
 
              Baa    -0.3723   -49.960   -17.827   -16.665 -0.3260  0.9453  0.0131
    23 C(13)  Bbb     0.1427    19.147     6.832     6.387  0.4750  0.1518  0.8668
              Bcc     0.2296    30.813    10.995    10.278  0.8173  0.2888 -0.4985
 
              Baa    -0.3300  -176.063   -62.824   -58.728  1.0000  0.0001  0.0040
    24 H(1)   Bbb     0.1556    83.011    29.620    27.689 -0.0013  0.9551  0.2962
              Bcc     0.1744    93.052    33.203    31.039 -0.0037 -0.2962  0.9551
 
              Baa    -0.3300  -176.063   -62.823   -58.728 -0.3329 -0.4709  0.8169
    25 H(1)   Bbb     0.1556    83.011    29.620    27.689 -0.2092  0.8817  0.4230
              Bcc     0.1744    93.052    33.203    31.039  0.9195  0.0300  0.3920
 
              Baa    -1.8757   135.726    48.430    45.273 -0.0004  0.8655  0.5008
    26 O(17)  Bbb    -0.1286     9.304     3.320     3.103  0.5762 -0.4091  0.7076
              Bcc     2.0043  -145.029   -51.750   -48.377  0.8173  0.2888 -0.4985
 
              Baa    -0.3720   -49.915   -17.811   -16.650  0.3250  0.4833  0.8129
    27 C(13)  Bbb     0.1423    19.100     6.815     6.371 -0.4757  0.8264 -0.3011
              Bcc     0.2296    30.815    10.995    10.279  0.8173  0.2889 -0.4985
 
              Baa    -0.3300  -176.062   -62.823   -58.728  1.0000 -0.0025  0.0025
    28 H(1)   Bbb     0.1556    83.013    29.621    27.690  0.0001  0.7335  0.6797
              Bcc     0.1744    93.050    33.202    31.038 -0.0035 -0.6797  0.7334
 
              Baa    -0.3300  -176.062   -62.823   -58.728 -0.3329 -0.4735  0.8154
    29 H(1)   Bbb     0.1556    83.013    29.621    27.690  0.2076  0.8067  0.5532
              Bcc     0.1744    93.049    33.202    31.038  0.9198 -0.3535  0.1703
 
              Baa    -0.3722   -49.942   -17.820   -16.659  0.3251  0.4829  0.8131
    30 C(13)  Bbb     0.1425    19.126     6.824     6.380 -0.4756  0.8266 -0.3009
              Bcc     0.2296    30.816    10.996    10.279  0.8174  0.2889 -0.4984
 
              Baa    -0.3300  -176.065   -62.824   -58.729 -0.3331 -0.4738  0.8152
    31 H(1)   Bbb     0.1556    83.016    29.622    27.691  0.2082  0.8063  0.5537
              Bcc     0.1744    93.049    33.202    31.038  0.9196 -0.3541  0.1699
 
              Baa    -0.3300  -176.065   -62.824   -58.729  1.0000 -0.0027  0.0025
    32 H(1)   Bbb     0.1556    83.017    29.622    27.691  0.0003  0.7328  0.6804
              Bcc     0.1744    93.048    33.202    31.038 -0.0037 -0.6804  0.7328
 
              Baa    -1.8762   135.758    48.442    45.284 -0.0001  0.8653  0.5012
    33 O(17)  Bbb    -0.1280     9.260     3.304     3.089  0.5760 -0.4097  0.7074
              Bcc     2.0041  -145.018   -51.746   -48.373  0.8175  0.2888 -0.4983
 
              Baa    -0.3722   -49.945   -17.822   -16.660 -0.3254  0.9455  0.0141
    34 C(13)  Bbb     0.1425    19.122     6.823     6.378  0.4752  0.1507  0.8669
              Bcc     0.2297    30.824    10.999    10.282  0.8175  0.2888 -0.4983
 
              Baa    -0.3300  -176.061   -62.823   -58.727  1.0000 -0.0004  0.0039
    35 H(1)   Bbb     0.1556    83.012    29.621    27.690 -0.0007  0.9548  0.2973
              Bcc     0.1744    93.048    33.202    31.038 -0.0039 -0.2973  0.9548
 
              Baa    -0.3300  -176.061   -62.823   -58.728 -0.3331 -0.4714  0.8166
    36 H(1)   Bbb     0.1556    83.013    29.621    27.690 -0.2084  0.8814  0.4239
              Bcc     0.1744    93.048    33.202    31.037  0.9196  0.0290  0.3919
 
              Baa    -0.3718   -49.890   -17.802   -16.642 -0.3255  0.9455  0.0141
    37 C(13)  Bbb     0.1423    19.092     6.812     6.368  0.4752  0.1507  0.8669
              Bcc     0.2295    30.798    10.990    10.273  0.8175  0.2888 -0.4983
 
              Baa    -0.3300  -176.075   -62.828   -58.732  1.0000 -0.0005  0.0039
    38 H(1)   Bbb     0.1556    83.026    29.626    27.694 -0.0007  0.9547  0.2975
              Bcc     0.1744    93.049    33.202    31.038 -0.0039 -0.2975  0.9547
 
              Baa    -0.3300  -176.075   -62.828   -58.732 -0.3331 -0.4715  0.8165
    39 H(1)   Bbb     0.1556    83.026    29.626    27.694 -0.2082  0.8814  0.4240
              Bcc     0.1744    93.049    33.202    31.038  0.9196  0.0287  0.3918
 
              Baa    -1.8764   135.778    48.449    45.291 -0.0004  0.8655  0.5009
    40 O(17)  Bbb    -0.1279     9.251     3.301     3.086  0.5760 -0.4093  0.7076
              Bcc     2.0043  -145.030   -51.750   -48.377  0.8175  0.2888 -0.4983
 
              Baa    -0.3723   -49.965   -17.829   -16.666  0.3254  0.4822  0.8133
    41 C(13)  Bbb     0.1430    19.192     6.848     6.402 -0.4752  0.8271 -0.3002
              Bcc     0.2293    30.772    10.980    10.265  0.8175  0.2888 -0.4983
 
              Baa    -0.3300  -176.090   -62.833   -58.737  1.0000 -0.0028  0.0026
    42 H(1)   Bbb     0.1556    83.028    29.627    27.695  0.0003  0.7318  0.6815
              Bcc     0.1744    93.061    33.207    31.042 -0.0038 -0.6815  0.7318
 
              Baa    -0.3300  -176.090   -62.833   -58.737 -0.3331 -0.4738  0.8152
    43 H(1)   Bbb     0.1556    83.028    29.627    27.695  0.2096  0.8057  0.5539
              Bcc     0.1744    93.061    33.207    31.042  0.9193 -0.3553  0.1691
 
              Baa    -0.3718   -49.895   -17.804   -16.643  0.3247  0.4835  0.8129
    44 C(13)  Bbb     0.1418    19.033     6.792     6.349 -0.4757  0.8263 -0.3015
              Bcc     0.2300    30.862    11.012    10.294  0.8175  0.2888 -0.4983
 
              Baa    -0.3300  -176.048   -62.818   -58.723  1.0000 -0.0027  0.0026
    45 H(1)   Bbb     0.1556    83.009    29.620    27.689  0.0002  0.7335  0.6797
              Bcc     0.1744    93.039    33.199    31.034 -0.0037 -0.6797  0.7335
 
              Baa    -0.3300  -176.048   -62.818   -58.723 -0.3332 -0.4737  0.8153
    46 H(1)   Bbb     0.1556    83.008    29.619    27.689  0.2073  0.8067  0.5534
              Bcc     0.1744    93.039    33.199    31.035  0.9198 -0.3534  0.1705
 
              Baa    -1.8770   135.820    48.464    45.305  0.0004  0.8649  0.5019
    47 O(17)  Bbb    -0.1278     9.244     3.299     3.083  0.5760 -0.4105  0.7069
              Bcc     2.0048  -145.064   -51.763   -48.388  0.8175  0.2888 -0.4983
 
              Baa    -0.3720   -49.920   -17.813   -16.652 -0.3255  0.9454  0.0140
    48 C(13)  Bbb     0.1403    18.826     6.718     6.280  0.4752  0.1508  0.8669
              Bcc     0.2317    31.094    11.095    10.372  0.8175  0.2888 -0.4983
 
              Baa    -0.3299  -176.036   -62.814   -58.719  1.0000 -0.0001  0.0039
    49 H(1)   Bbb     0.1556    83.002    29.617    27.686 -0.0011  0.9547  0.2975
              Bcc     0.1744    93.034    33.197    31.033 -0.0038 -0.2975  0.9547
 
              Baa    -0.3299  -176.036   -62.814   -58.719 -0.3333 -0.4711  0.8167
    50 H(1)   Bbb     0.1556    83.002    29.617    27.686 -0.2081  0.8816  0.4237
              Bcc     0.1744    93.034    33.197    31.033  0.9196  0.0287  0.3919
 
              Baa    -0.3705   -49.723   -17.742   -16.586 -0.3187  0.9475  0.0263
    51 C(13)  Bbb     0.1423    19.092     6.812     6.368  0.4797  0.1373  0.8666
              Bcc     0.2283    30.631    10.930    10.217  0.8175  0.2888 -0.4983
 
              Baa    -0.3312  -176.734   -63.063   -58.952  1.0000 -0.0027  0.0049
    52 H(1)   Bbb     0.1578    84.190    30.041    28.083  0.0010  0.9485  0.3167
              Bcc     0.1734    92.544    33.022    30.869 -0.0055 -0.3167  0.9485
 
              Baa    -0.3312  -176.734   -63.063   -58.952 -0.3313 -0.4730  0.8164
    53 H(1)   Bbb     0.1578    84.190    30.041    28.083 -0.1902  0.8810  0.4333
              Bcc     0.1734    92.544    33.022    30.869  0.9242  0.0117  0.3818
 
              Baa    -1.8453   133.523    47.644    44.539 -0.0162  0.8764  0.4814
    54 O(17)  Bbb    -0.1181     8.545     3.049     2.850  0.5757 -0.3854  0.7211
              Bcc     1.9634  -142.068   -50.693   -47.389  0.8175  0.2888 -0.4983
 
              Baa    -0.4824  -257.378   -91.839   -85.852  0.3330  0.4690  0.8180
    55 H(1)   Bbb     0.2109   112.500    40.143    37.526 -0.4700  0.8346 -0.2872
              Bcc     0.2715   144.878    51.696    48.326  0.8175  0.2888 -0.4983
 

 ---------------------------------------------------------------------------------

 No NMR shielding tensors so no spin-rotation constants.
 Leave Link  601 at Tue May  2 11:18:48 2017, MaxMem=   33554432 cpu:       0.3
 Merz-Kollman atomic radii used.
 Atom Element Radius
    1     6    1.50
    2     1    1.20
    3     1    1.20
    4     1    1.20
    5     8    1.40
    6     6    1.50
    7     1    1.20
    8     1    1.20
    9     6    1.50
   10     1    1.20
   11     1    1.20
   12     8    1.40
   13     6    1.50
   14     1    1.20
   15     1    1.20
   16     6    1.50
   17     1    1.20
   18     1    1.20
   19     8    1.40
   20     6    1.50
   21     1    1.20
   22     1    1.20
   23     6    1.50
   24     1    1.20
   25     1    1.20
   26     8    1.40
   27     6    1.50
   28     1    1.20
   29     1    1.20
   30     6    1.50
   31     1    1.20
   32     1    1.20
   33     8    1.40
   34     6    1.50
   35     1    1.20
   36     1    1.20
   37     6    1.50
   38     1    1.20
   39     1    1.20
   40     8    1.40
   41     6    1.50
   42     1    1.20
   43     1    1.20
   44     6    1.50
   45     1    1.20
   46     1    1.20
   47     8    1.40
   48     6    1.50
   49     1    1.20
   50     1    1.20
   51     6    1.50
   52     1    1.20
   53     1    1.20
   54     8    1.40
   55     1    1.20
 Generate VDW surfaces: Layer= 4 Dens= 6 Start= 1.400 Inc= 0.200

 **********************************************************************

            Electrostatic Properties Using The SCF Density

 **********************************************************************

       Atomic Center    1 is at  -3.870968  1.009786 -0.000362
       Atomic Center    2 is at  -3.514556  0.000890 -0.000580
       Atomic Center    3 is at  -3.512821  1.514765 -0.873075
       Atomic Center    4 is at  -4.940967  1.010057 -0.002020
       Atomic Center    5 is at  -3.395941  1.682883  1.168479
       Atomic Center    6 is at  -3.872267  3.031220  1.168770
       Atomic Center    7 is at  -4.942266  3.031491  1.167112
       Atomic Center    8 is at  -3.514120  3.536199  0.296057
       Atomic Center    9 is at  -3.360700  3.756093  2.427522
       Atomic Center   10 is at  -2.290702  3.755822  2.429180
       Atomic Center   11 is at  -3.718847  3.251114  3.300234
       Atomic Center   12 is at  -3.837026  5.104430  2.427813
       Atomic Center   13 is at  -3.362000  5.777527  3.596654
       Atomic Center   14 is at  -2.292001  5.777256  3.598312
       Atomic Center   15 is at  -3.720147  5.272548  4.469366
       Atomic Center   16 is at  -3.874966  7.229583  3.596967
       Atomic Center   17 is at  -3.516819  7.734561  2.724255
       Atomic Center   18 is at  -4.944965  7.229854  3.595309
       Atomic Center   19 is at  -3.399939  7.902679  4.765808
       Atomic Center   20 is at  -3.876266  9.251017  4.766099
       Atomic Center   21 is at  -4.946264  9.251288  4.764441
       Atomic Center   22 is at  -3.518118  9.755995  3.893387
       Atomic Center   23 is at  -3.364698  9.975890  6.024851
       Atomic Center   24 is at  -2.294700  9.975619  6.026509
       Atomic Center   25 is at  -3.722846  9.470911  6.897564
       Atomic Center   26 is at  -3.841024 11.324227  6.025142
       Atomic Center   27 is at  -3.365998 11.997324  7.193983
       Atomic Center   28 is at  -2.295999 11.997054  7.195640
       Atomic Center   29 is at  -3.724143 11.492344  8.066696
       Atomic Center   30 is at  -3.878967 13.449378  7.194297
       Atomic Center   31 is at  -3.520664 13.954634  6.321809
       Atomic Center   32 is at  -4.948966 13.449912  7.192601
       Atomic Center   33 is at  -3.403818 14.121870  8.363437
       Atomic Center   34 is at  -3.879412 15.470465  8.364858
       Atomic Center   35 is at  -4.949411 15.471318  8.363256
       Atomic Center   36 is at  -3.521037 15.975965  7.492541
       Atomic Center   37 is at  -3.367386 16.194029  9.624177
       Atomic Center   38 is at  -2.297387 16.193174  9.625779
       Atomic Center   39 is at  -3.725762 15.688530 10.496494
       Atomic Center   40 is at  -3.842979 17.542624  9.625597
       Atomic Center   41 is at  -3.367846 18.215110 10.794746
       Atomic Center   42 is at  -2.297847 18.214530 10.796484
       Atomic Center   43 is at  -3.726204 17.709881 11.667228
       Atomic Center   44 is at  -3.880394 19.667313 10.795609
       Atomic Center   45 is at  -4.950393 19.667893 10.793853
       Atomic Center   46 is at  -3.522021 20.172547  9.923137
       Atomic Center   47 is at  -3.405281 20.339792 11.964771
       Atomic Center   48 is at  -3.880864 21.688391 11.966184
       Atomic Center   49 is at  -4.950862 21.689253 11.964574
       Atomic Center   50 is at  -3.522477 22.193886 11.093869
       Atomic Center   51 is at  -3.368841 22.411953 13.225506
       Atomic Center   52 is at  -2.298843 22.411092 13.227115
       Atomic Center   53 is at  -3.727226 21.906457 14.097821
       Atomic Center   54 is at  -3.844427 23.760551 13.226921
       Atomic Center   55 is at  -3.525468 24.212006 14.011812
      ESP Fit Center   56 is at  -4.862914  0.395599  1.745724
      ESP Fit Center   57 is at  -4.574060  0.078741  1.745724
      ESP Fit Center   58 is at  -4.190250 -0.112374  1.745724
      ESP Fit Center   59 is at  -5.120166  0.206975  1.484562
      ESP Fit Center   60 is at  -4.843387 -0.112445  1.484562
      ESP Fit Center   61 is at  -4.487828 -0.340949  1.484562
      ESP Fit Center   62 is at  -4.862858 -0.427215  1.166335
      ESP Fit Center   63 is at  -4.959753 -0.596053  0.803273
      ESP Fit Center   64 is at  -5.131692 -0.618935  0.409327
      ESP Fit Center   65 is at  -1.853480  0.595181  0.409327
      ESP Fit Center   66 is at  -1.770968  1.009786 -0.000362
      ESP Fit Center   67 is at  -1.811319  1.419475 -0.000362
      ESP Fit Center   68 is at  -5.037666 -0.736300 -0.000362
      ESP Fit Center   69 is at  -1.811319  0.600096 -0.000362
      ESP Fit Center   70 is at  -1.811319  1.009786 -0.410052
      ESP Fit Center   71 is at  -1.853480  1.424390 -0.410052
      ESP Fit Center   72 is at  -5.131692 -0.618935 -0.410052
      ESP Fit Center   73 is at  -1.853480  0.595181 -0.410052
      ESP Fit Center   74 is at  -4.589090  2.812137 -0.803998
      ESP Fit Center   75 is at  -4.959753  2.615624 -0.803998
      ESP Fit Center   76 is at  -4.959753 -0.596053 -0.803998
      ESP Fit Center   77 is at  -1.976181  0.592712 -0.803998
      ESP Fit Center   78 is at  -4.862858 -0.427215 -1.167060
      ESP Fit Center   79 is at  -5.120166  1.812596 -1.485287
      ESP Fit Center   80 is at  -5.120166  0.206975 -1.485287
      ESP Fit Center   81 is at  -4.843387 -0.112445 -1.485287
      ESP Fit Center   82 is at  -4.487828 -0.340949 -1.485287
      ESP Fit Center   83 is at  -2.621770  0.206975 -1.485287
      ESP Fit Center   84 is at  -5.017800  1.224166 -1.746449
      ESP Fit Center   85 is at  -5.017800  0.795406 -1.746449
      ESP Fit Center   86 is at  -4.862914  0.395599 -1.746449
      ESP Fit Center   87 is at  -4.574060  0.078741 -1.746449
      ESP Fit Center   88 is at  -4.190250 -0.112374 -1.746449
      ESP Fit Center   89 is at  -3.763319 -0.151935 -1.746449
      ESP Fit Center   90 is at  -3.350926 -0.034599 -1.746449
      ESP Fit Center   91 is at  -4.566937  0.607968 -1.940509
      ESP Fit Center   92 is at  -4.272786  0.313817 -1.940509
      ESP Fit Center   93 is at  -3.870968  0.206151 -1.940509
      ESP Fit Center   94 is at  -3.731964 -0.375672  1.622176
      ESP Fit Center   95 is at  -3.297148 -0.375672  1.622176
      ESP Fit Center   96 is at  -3.934556 -0.726571  1.454343
      ESP Fit Center   97 is at  -3.514556 -0.839110  1.454343
      ESP Fit Center   98 is at  -3.094556 -0.726571  1.454343
      ESP Fit Center   99 is at  -2.787095 -0.419110  1.454343
      ESP Fit Center  100 is at  -2.326617  0.000890  1.187360
      ESP Fit Center  101 is at  -4.524563 -0.624479  1.187360
      ESP Fit Center  102 is at  -4.230450 -0.947106  1.187360
      ESP Fit Center  103 is at  -3.839651 -1.141700  1.187360
      ESP Fit Center  104 is at  -3.404947 -1.181982  1.187360
      ESP Fit Center  105 is at  -2.985046 -1.062510  1.187360
      ESP Fit Center  106 is at  -2.636658 -0.799419  1.187360
      ESP Fit Center  107 is at  -2.406836 -0.428243  1.187360
      ESP Fit Center  108 is at  -2.059633  0.000890  0.839420
      ESP Fit Center  109 is at  -4.581090 -0.988709  0.839420
      ESP Fit Center  110 is at  -4.242017 -1.259110  0.839420
      ESP Fit Center  111 is at  -3.838307 -1.417555  0.839420
      ESP Fit Center  112 is at  -3.405830 -1.449964  0.839420
      ESP Fit Center  113 is at  -2.983013 -1.353459  0.839420
      ESP Fit Center  114 is at  -2.607427 -1.136614  0.839420
      ESP Fit Center  115 is at  -2.312443 -0.818697  0.839420
      ESP Fit Center  116 is at  -2.124272 -0.427956  0.839420
      ESP Fit Center  117 is at  -1.891801  0.000890  0.434236
      ESP Fit Center  118 is at  -4.919904 -0.810488  0.434236
      ESP Fit Center  119 is at  -4.662017 -1.146571  0.434236
      ESP Fit Center  120 is at  -4.325934 -1.404457  0.434236
      ESP Fit Center  121 is at  -3.934556 -1.566571  0.434236
      ESP Fit Center  122 is at  -3.514556 -1.621865  0.434236
      ESP Fit Center  123 is at  -3.094556 -1.566571  0.434236
      ESP Fit Center  124 is at  -2.703178 -1.404457  0.434236
      ESP Fit Center  125 is at  -2.367095 -1.146571  0.434236
      ESP Fit Center  126 is at  -2.109209 -0.810488  0.434236
      ESP Fit Center  127 is at  -1.947095 -0.419110  0.434236
[...]
 **** Fit      -0.000203
 **** Fit       0.000826
 **** Fit       0.001727
 **** Fit      -0.008617
 **** Fit      -0.006357
 **** Fit      -0.004322
 **** Fit      -0.002582
 **** Fit      -0.001135
 **** Fit       0.000060
 **** Fit       0.001081
 **** Fit       0.002059
 **** Fit      -0.005465
 **** Fit      -0.003844
 **** Fit      -0.002298
 **** Fit      -0.000930
 **** Fit       0.000251
 **** Fit       0.001309
 **** Fit      -0.001880
 **** Fit      -0.000677
 **** Fit       0.000442
 **** Fit       0.001501
 **** Fit       0.000153
 **** Fit       0.001195
 **** Fit      -0.000703
 **** Fit      -0.001198
 **** Fit      -0.002654
 **** Fit      -0.005053
 **** Fit      -0.008368
 **** Fit      -0.001212
 **** Fit      -0.000829
 **** Fit      -0.001201
 **** Fit      -0.002284
 **** Fit      -0.004034
 **** Fit      -0.006367
 **** Fit      -0.009107
 **** Fit      -0.011944
 **** Fit      -0.014457
 **** Fit      -0.000751
 **** Fit      -0.000580
 **** Fit      -0.000943
 **** Fit      -0.001832
 **** Fit      -0.003196
 **** Fit      -0.004931
 **** Fit      -0.006855
 **** Fit      -0.008706
 **** Fit      -0.010184
 **** Fit      -0.011025
 **** Fit      -0.011078
 **** Fit      -0.010340
 **** Fit      -0.008936
 **** Fit      -0.001426
 **** Fit      -0.000104
 **** Fit      -0.000145
 **** Fit      -0.000529
 **** Fit      -0.001273
 **** Fit      -0.002336
 **** Fit      -0.003613
 **** Fit      -0.004943
 **** Fit      -0.006123
 **** Fit      -0.006948
 **** Fit      -0.007267
 **** Fit      -0.007021
 **** Fit      -0.006249
 **** Fit      -0.005060
 **** Fit      -0.000311
 **** Fit       0.000587
 **** Fit       0.000336
 **** Fit      -0.000132
 **** Fit      -0.000853
 **** Fit      -0.001774
 **** Fit      -0.002771
 **** Fit      -0.003671
 **** Fit      -0.004296
 **** Fit      -0.004511
 **** Fit      -0.004264
 **** Fit      -0.003592
 **** Fit      -0.002591
 **** Fit      -0.001378
 **** Fit       0.000779
 **** Fit       0.001234
 **** Fit       0.000795
 **** Fit       0.000258
 **** Fit      -0.000423
 **** Fit      -0.001181
 **** Fit      -0.001878
 **** Fit      -0.002353
 **** Fit      -0.002484
 **** Fit      -0.002224
 **** Fit      -0.001610
 **** Fit      -0.000731
 **** Fit       0.000313
 **** Fit       0.001774
 **** Fit       0.001160
 **** Fit       0.000552
 **** Fit      -0.000082
 **** Fit      -0.000631
 **** Fit      -0.000937
 **** Fit      -0.000884
 **** Fit      -0.000456
 **** Fit       0.000276
 **** Fit       0.001211
 **** Fit       0.002148
 **** Fit       0.001369
 **** Fit       0.000731
 **** Fit       0.000307
 **** Fit       0.000288
 **** Fit       0.000749
 **** Fit       0.001608
 **** Fit       0.002312
 **** Fit       0.001472
 **** Fit       0.001283
 **** Fit       0.001985
 **** Fit       0.002246
 **** Fit       0.013010
 **** Fit       0.016363
 **** Fit       0.012532
 **** Fit       0.015862
 **** Fit       0.010021
 **** Fit       0.011805
 **** Fit       0.015008
 **** Fit       0.019137
 **** Fit       0.007438
 **** Fit       0.009326
 **** Fit       0.010942
 **** Fit       0.013701
 **** Fit       0.017221
 **** Fit       0.005255
 **** Fit       0.006808
 **** Fit       0.008691
 **** Fit       0.015528
 **** Fit       0.002802
 **** Fit       0.004326
 **** Fit       0.000083
 **** Fit       0.001773
 **** Fit      -0.004267
 **** Fit      -0.005377
 **** Fit      -0.003504
 **** Fit      -0.001423
 **** Fit      -0.004308
 **** Fit      -0.002098
 **** Fit      -0.008292
 **** Fit      -0.005559
 **** Fit      -0.003250
 **** Fit      -0.004573
 **** Fit      -0.001294
 **** Fit       0.009333
 **** Fit       0.011763
 **** Fit       0.007492
 **** Fit       0.008130
 **** Fit       0.010016
 **** Fit       0.012523
 **** Fit       0.016212
 **** Fit       0.003771
 **** Fit       0.005107
 **** Fit       0.006547
 **** Fit       0.007069
 **** Fit       0.008574
 **** Fit       0.010419
 **** Fit       0.012973
 **** Fit       0.016907
 **** Fit       0.001349
 **** Fit       0.002854
 **** Fit       0.004302
 **** Fit       0.005686
 **** Fit       0.006105
 **** Fit       0.007291
 **** Fit       0.008605
 **** Fit       0.010258
 **** Fit       0.012604
 **** Fit      -0.001377
 **** Fit       0.000506
 **** Fit       0.002171
 **** Fit       0.003626
 **** Fit       0.004915
 **** Fit       0.005199
 **** Fit       0.006184
 **** Fit       0.007164
 **** Fit       0.008271
 **** Fit       0.009709
 **** Fit       0.011835
 **** Fit      -0.005705
 **** Fit      -0.002888
 **** Fit      -0.000576
 **** Fit       0.001303
 **** Fit       0.002838
 **** Fit       0.004110
 **** Fit       0.004315
 **** Fit       0.005126
 **** Fit       0.005823
 **** Fit       0.006477
 **** Fit       0.007175
 **** Fit       0.008036
 **** Fit      -0.007675
 **** Fit      -0.004184
 **** Fit      -0.001534
 **** Fit       0.000500
 **** Fit       0.002080
 **** Fit       0.003323
 **** Fit       0.003428
 **** Fit       0.004113
 **** Fit       0.004595
 **** Fit       0.004907
 **** Fit       0.005061
 **** Fit       0.005036
 **** Fit       0.004736
 **** Fit      -0.005763
 **** Fit      -0.002682
 **** Fit      -0.000431
 **** Fit       0.001241
 **** Fit       0.002494
 **** Fit       0.002526
 **** Fit       0.003133
 **** Fit       0.003442
 **** Fit       0.003456
 **** Fit       0.003129
 **** Fit       0.002320
 **** Fit      -0.008441
 **** Fit      -0.004448
 **** Fit      -0.001710
 **** Fit       0.000217
 **** Fit       0.001582
 **** Fit       0.001611
 **** Fit       0.002164
 **** Fit       0.002312
 **** Fit       0.002029
 **** Fit       0.001204
 **** Fit      -0.000429
 **** Fit      -0.006799
 **** Fit      -0.003277
 **** Fit      -0.000945
 **** Fit       0.000611
 **** Fit       0.000703
 **** Fit       0.001218
 **** Fit       0.001227
 **** Fit       0.000686
 **** Fit      -0.000561
 **** Fit      -0.002861
 **** Fit      -0.004917
 **** Fit      -0.002133
 **** Fit      -0.000364
 **** Fit      -0.000148
 **** Fit       0.000361
 **** Fit       0.000201
 **** Fit      -0.000695
 **** Fit      -0.002553
 **** Fit      -0.003621
 **** Fit      -0.001394
 **** Fit      -0.000852
 **** Fit      -0.000333
 **** Fit      -0.000630
 **** Fit      -0.001794
 **** Fit      -0.002297
 **** Fit      -0.001247
 **** Fit      -0.000690
 **** Fit       0.008179
 **** Fit       0.008751
 **** Fit       0.010243
 **** Fit       0.009275
 **** Fit       0.007371
 **** Fit       0.006575
 **** Fit       0.007060
 **** Fit       0.009080
 **** Fit       0.011385
 **** Fit       0.013053
 **** Fit       0.012676
 **** Fit       0.010353
 **** Fit       0.007890
 **** Fit       0.006343
 **** Fit       0.005566
 **** Fit       0.005232
 **** Fit       0.005291
 **** Fit       0.005881
 **** Fit       0.007142
 **** Fit       0.009165
 **** Fit       0.011785
 **** Fit       0.017365
 **** Fit       0.015039
 **** Fit       0.011349
 **** Fit       0.008147
 **** Fit       0.006154
 **** Fit       0.005120
 **** Fit       0.004587
 **** Fit       0.004250
 **** Fit       0.004008
 **** Fit       0.003904
 **** Fit       0.004056
 **** Fit       0.004586
 **** Fit       0.005581
 **** Fit       0.007094
 **** Fit       0.009018
 **** Fit       0.010380
 **** Fit       0.006717
 **** Fit       0.004789
 **** Fit       0.003947
 **** Fit       0.003601
 **** Fit       0.003394
 **** Fit       0.003164
 **** Fit       0.002884
 **** Fit       0.002615
 **** Fit       0.002465
 **** Fit       0.002557
 **** Fit       0.002988
 **** Fit       0.003818
 **** Fit       0.005073
 **** Fit       0.006783
 **** Fit       0.003319
 **** Fit       0.002365
 **** Fit       0.002218
 **** Fit       0.002303
 **** Fit       0.002335
 **** Fit       0.002202
 **** Fit       0.001896
 **** Fit       0.001476
 **** Fit       0.001050
 **** Fit       0.000748
 **** Fit       0.000699
 **** Fit       0.001003
 **** Fit       0.001712
 **** Fit       0.002829
 **** Fit       0.004342
 **** Fit      -0.000212
 **** Fit       0.000443
 **** Fit       0.000995
 **** Fit       0.001282
 **** Fit       0.001260
 **** Fit       0.000947
 **** Fit       0.000407
 **** Fit      -0.000261
 **** Fit      -0.000923
 **** Fit      -0.001432
 **** Fit      -0.001647
 **** Fit      -0.001460
 **** Fit      -0.000822
 **** Fit       0.000255
 **** Fit       0.001724
 **** Fit      -0.002860
 **** Fit      -0.001272
 **** Fit      -0.000201
 **** Fit       0.000331
 **** Fit       0.000359
 **** Fit      -0.000059
 **** Fit      -0.000841
 **** Fit      -0.001868
 **** Fit      -0.002979
 **** Fit      -0.003979
 **** Fit      -0.004660
 **** Fit      -0.004846
 **** Fit      -0.004430
 **** Fit      -0.003405
 **** Fit      -0.002717
 **** Fit      -0.001142
 **** Fit      -0.000407
 **** Fit      -0.000385
 **** Fit      -0.000982
 **** Fit      -0.002111
 **** Fit      -0.003653
 **** Fit      -0.005430
 **** Fit      -0.007186
 **** Fit      -0.008539
 **** Fit      -0.001028
 **** Fit      -0.000695
 **** Fit      -0.001256
 **** Fit      -0.002624
 **** Fit      -0.004734
 **** Fit       0.007253
 **** Fit       0.003850
 **** Fit       0.002588
 **** Fit       0.002573
 **** Fit       0.001931
 **** Fit      -0.000374
 **** Fit      -0.001663
 **** Fit      -0.001918
 **** Fit      -0.001195
 **** Fit      -0.000783
 **** Fit      -0.003311
 **** Fit      -0.005015
 **** Fit      -0.005827
 **** Fit      -0.005737
 **** Fit      -0.004795
 **** Fit      -0.003102
 **** Fit      -0.000446
 **** Fit      -0.003475
 **** Fit      -0.005980
 **** Fit      -0.007848
 **** Fit      -0.008993
 **** Fit      -0.009361
 **** Fit      -0.008942
 **** Fit      -0.007780
 **** Fit      -0.005975
 **** Fit      -0.001545
 **** Fit      -0.004482
 **** Fit      -0.007105
 **** Fit      -0.009296
 **** Fit      -0.010950
 **** Fit      -0.011979
 **** Fit      -0.012318
 **** Fit      -0.011932
 **** Fit      -0.010832
 **** Fit      -0.009086
 **** Fit      -0.002114
 **** Fit      -0.004861
 **** Fit      -0.007488
 **** Fit      -0.009872
 **** Fit      -0.011899
 **** Fit      -0.013456
 **** Fit      -0.014443
 **** Fit      -0.014775
 **** Fit      -0.014392
 **** Fit      -0.013270
 **** Fit      -0.011438
 **** Fit      -0.009001
 **** Fit       0.007272
 **** Fit      -0.001291
 **** Fit      -0.003459
 **** Fit      -0.005753
 **** Fit      -0.008079
 **** Fit      -0.010333
 **** Fit      -0.012410
 **** Fit      -0.014198
 **** Fit      -0.015588
 **** Fit      -0.016474
 **** Fit      -0.016759
 **** Fit      -0.016363
 **** Fit      -0.015229
 **** Fit      -0.013335
 **** Fit       0.002949
 **** Fit       0.002050
 **** Fit       0.001232
 **** Fit       0.000406
 **** Fit      -0.000508
 **** Fit      -0.001575
 **** Fit      -0.002839
 **** Fit      -0.004315
 **** Fit      -0.005989
 **** Fit      -0.007820
 **** Fit      -0.009748
 **** Fit      -0.011694
 **** Fit      -0.013568
 **** Fit      -0.015270
 **** Fit      -0.016693
 **** Fit      -0.017727
 **** Fit      -0.018262
 **** Fit      -0.018194
 **** Fit      -0.017429
 **** Fit      -0.015887
 **** Fit      -0.013502
 **** Fit      -0.000923
 **** Fit      -0.002139
 **** Fit      -0.003226
 **** Fit      -0.004256
 **** Fit      -0.005294
 **** Fit      -0.006403
 **** Fit      -0.007624
 **** Fit      -0.008979
 **** Fit      -0.010461
 **** Fit      -0.012041
 **** Fit      -0.013665
 **** Fit      -0.015262
 **** Fit      -0.016742
 **** Fit      -0.018004
 **** Fit      -0.018938
 **** Fit      -0.019428
 **** Fit      -0.019357
 **** Fit      -0.018610
 **** Fit      -0.017073
 **** Fit      -0.004207
 **** Fit      -0.005670
 **** Fit      -0.006974
 **** Fit      -0.008167
 **** Fit      -0.009304
 **** Fit      -0.010438
 **** Fit      -0.011609
 **** Fit      -0.012840
 **** Fit      -0.014130
 **** Fit      -0.015454
 **** Fit      -0.016765
 **** Fit      -0.017993
 **** Fit      -0.019053
 **** Fit      -0.019841
 **** Fit      -0.020248
 **** Fit      -0.020155
 **** Fit      -0.019438
 **** Fit      -0.017971
 **** Fit      -0.007003
 **** Fit      -0.008715
 **** Fit      -0.010230
 **** Fit      -0.011587
 **** Fit      -0.012836
 **** Fit      -0.014026
 **** Fit      -0.015194
 **** Fit      -0.016355
 **** Fit      -0.017497
 **** Fit      -0.018580
 **** Fit      -0.019538
 **** Fit      -0.020279
 **** Fit      -0.020695
 **** Fit      -0.020660
 **** Fit      -0.020040
 **** Fit      -0.018693
 **** Fit      -0.016449
 **** Fit      -0.009244
 **** Fit      -0.011211
 **** Fit      -0.012920
 **** Fit      -0.014411
 **** Fit      -0.015735
 **** Fit      -0.016938
 **** Fit      -0.018045
 **** Fit      -0.019048
 **** Fit      -0.019905
 **** Fit      -0.020538
 **** Fit      -0.020838
 **** Fit      -0.020672
 **** Fit      -0.019888
 **** Fit      -0.018326
 **** Fit      -0.008264
 **** Fit      -0.010819
 **** Fit      -0.013010
 **** Fit      -0.014859
 **** Fit      -0.016410
 **** Fit      -0.017714
 **** Fit      -0.018803
 **** Fit      -0.019673
 **** Fit      -0.020274
 **** Fit      -0.020517
 **** Fit      -0.020269
 **** Fit      -0.019376
 **** Fit      -0.017670
 **** Fit      -0.011914
 **** Fit      -0.014320
 **** Fit      -0.016228
 **** Fit      -0.017702
 **** Fit      -0.018773
 **** Fit      -0.019428
 **** Fit      -0.019586
 **** Fit      -0.019110
 **** Fit      -0.017829
 **** Fit      -0.015212
 **** Fit      -0.016876
 **** Fit      -0.017753
 **** Fit      -0.017772
 **** Fit      -0.016761
 **** Fit       0.019107
 **** Fit       0.020328
 **** Fit       0.019874
 **** Fit       0.018429
 **** Fit       0.017356
 **** Fit       0.017961
 **** Fit       0.019472
 **** Fit       0.021051
 **** Fit       0.020943
 **** Fit       0.020236
 **** Fit       0.018996
 **** Fit       0.017421
 **** Fit       0.015911
 **** Fit       0.015033
 **** Fit       0.015245
 **** Fit       0.016472
 **** Fit       0.018095
 **** Fit       0.019537
 **** Fit       0.020562
 **** Fit       0.021299
 **** Fit       0.021280
 **** Fit       0.020906
 **** Fit       0.020174
 **** Fit       0.019088
 **** Fit       0.017684
 **** Fit       0.016058
 **** Fit       0.014387
 **** Fit       0.012949
 **** Fit       0.012088
 **** Fit       0.012101
 **** Fit       0.013065
 **** Fit       0.014711
 **** Fit       0.019296
 **** Fit       0.020279
 **** Fit       0.020962
 **** Fit       0.021087
 **** Fit       0.021080
 **** Fit       0.020820
 **** Fit       0.020303
 **** Fit       0.019515
 **** Fit       0.018445
 **** Fit       0.017094
 **** Fit       0.015490
 **** Fit       0.013701
 **** Fit       0.011855
 **** Fit       0.010151
 **** Fit       0.008857
 **** Fit       0.008270
 **** Fit       0.008622
 **** Fit       0.009955
 **** Fit       0.020301
 **** Fit       0.020833
 **** Fit       0.020425
 **** Fit       0.020390
 **** Fit       0.020162
 **** Fit       0.019737
 **** Fit       0.019097
 **** Fit       0.018221
 **** Fit       0.017090
 **** Fit       0.015694
 **** Fit       0.014036
 **** Fit       0.012149
 **** Fit       0.010100
 **** Fit       0.008013
 **** Fit       0.006081
 **** Fit       0.004569
 **** Fit       0.020248
 **** Fit       0.019311
 **** Fit       0.019217
 **** Fit       0.018986
 **** Fit       0.018613
 **** Fit       0.018078
 **** Fit       0.017357
 **** Fit       0.016424
 **** Fit       0.015256
 **** Fit       0.013837
 **** Fit       0.012159
 **** Fit       0.010228
 **** Fit       0.008075
 **** Fit       0.005767
 **** Fit       0.003422
 **** Fit       0.019247
 **** Fit       0.017734
 **** Fit       0.017533
 **** Fit       0.017243
 **** Fit       0.016849
 **** Fit       0.016321
 **** Fit       0.015628
 **** Fit       0.014737
 **** Fit       0.013618
 **** Fit       0.012244
 **** Fit       0.010592
 **** Fit       0.008650
 **** Fit       0.006417
 **** Fit       0.003915
 **** Fit       0.001207
 **** Fit       0.015664
 **** Fit       0.015310
 **** Fit       0.014939
 **** Fit       0.014509
 **** Fit       0.013980
 **** Fit       0.013312
 **** Fit       0.012466
 **** Fit       0.011406
 **** Fit       0.010098
 **** Fit       0.008513
 **** Fit       0.006623
 **** Fit       0.004408
 **** Fit       0.001859
 **** Fit       0.012479
 **** Fit       0.011993
 **** Fit       0.011499
 **** Fit       0.010935
 **** Fit       0.010248
 **** Fit       0.009391
 **** Fit       0.008322
 **** Fit       0.007000
 **** Fit       0.005386
 **** Fit       0.003446
 **** Fit       0.001144
 **** Fit       0.008922
 **** Fit       0.008286
 **** Fit       0.007687
 **** Fit       0.007032
 **** Fit       0.006245
 **** Fit       0.005265
 **** Fit       0.004035
 **** Fit       0.002502
 **** Fit       0.000615
 -----------------------------------------------------------------
 Leave Link  602 at Tue May  2 11:27:08 2017, MaxMem=   33554432 cpu:       3.8

 Test job not archived.
 1\1\GINC-N0715\FOpt\RHF\6-31G(d)\C15H32O8\JSMITH07\02-May-2017\0\\#HF/
 6-31G* SCF=tight Test Pop=MK iop(6/33=2) NoSymm iop(6/42=6) opt\\remar
 k line goes here\\0,1\C,-3.8863804733,1.2451798638,0.1103070021\H,-3.4
 901988986,0.2414230778,0.1783148475\H,-3.5288743219,1.7042143591,-0.80
 93654503\H,-4.9727334908,1.1939800096,0.071109649\O,-3.450345123,1.946
 1383989,1.2315502411\C,-3.885006278,3.2695363741,1.2856728319\H,-4.971
 8886781,3.3231145905,1.2980038717\H,-3.5348107444,3.8309525651,0.42166
 41622\C,-3.3292751233,3.8839551351,2.5530514119\H,-2.2430247636,3.8318
 205637,2.5405878779\H,-3.6800477656,3.3240019412,3.4168940891\O,-3.764
 097896,5.2091203585,2.6079332152\C,-3.3323627168,5.9201239238,3.727946
 3016\H,-2.2461668252,5.9595948685,3.7685292339\H,-3.6831487467,5.45179
 06322,4.6448102666\C,-3.8915935558,7.3235394775,3.6241619977\H,-3.5407
 263396,7.791968702,2.7073942513\H,-4.977783623,7.2841377742,3.58372089
 85\O,-3.4600682572,8.0352161203,4.74422151\C,-3.8947921398,9.359876751
 4,4.7989735709\H,-4.9811215979,9.4122504131,4.8114664867\H,-3.54408109
 18,9.9200755795,3.9351507757\C,-3.3385531117,9.973476793,6.0667123645\
 H,-2.2522424342,9.9211718697,6.0542204235\H,-3.6892905258,9.4133452864
 ,6.9305402868\O,-3.7732568385,11.2982891093,6.1215830805\C,-3.34169602
 31,12.0097969597,7.241608539\H,-2.2555199258,12.0493090255,7.282119274
 7\H,-3.6925738292,11.5414951932,8.1584286724\C,-3.9010512444,13.413139
 6424,7.1375558649\H,-3.5501697021,13.8814510346,6.2207470262\H,-4.9872
 23457,13.3736302042,7.0970488206\O,-3.4694881156,14.1246413042,8.25760
 00353\C,-3.9041610086,15.4494735042,8.3124462489\H,-4.9904667611,15.50
 18161214,8.3248966518\H,-3.553375598,16.009595717,7.4486363288\C,-3.34
 79562995,16.0630683138,9.5802066695\H,-2.2616242865,16.010645303,9.567
 7508051\H,-3.6987202515,15.502867539,10.4440123471\O,-3.7826096739,17.
 3877498129,9.6349910962\C,-3.3511322361,18.0994621562,10.7550405785\H,
 -2.264926997,18.1387848451,10.7955252797\H,-3.7020257496,17.6310029193
 ,11.6717994478\C,-3.9102373047,19.5029676456,10.6514042509\H,-4.996412
 1217,19.4635869718,10.6107999012\H,-3.5594231866,19.9713310117,9.73459
 42972\O,-3.4784895965,20.2139944191,11.7715028178\C,-3.9131207135,21.5
 391667926,11.8265989479\H,-4.999399303,21.5921096133,11.8395157106\H,-
 3.5622410815,22.0999033285,10.9632166732\C,-3.3583322186,22.1548177764
 ,13.0932245427\H,-2.2732668709,22.0977360713,13.0754805733\H,-3.710782
 8727,21.5898157215,13.9519976107\O,-3.8027844587,23.4844966782,13.1348
 254242\H,-3.475774802,23.9068295158,13.9158593161\\Version=EM64L-G09Re
 vA.02\HF=-1185.4427355\RMSD=4.290e-09\RMSF=2.741e-05\Dipole=0.079219,-
 0.0707613,0.0889288\Quadrupole=-6.597163,-8.0855708,14.6827338,12.1488
 069,5.2725107,17.361561\PG=C01 [X(C15H32O8)]\\@


 LIFE IS A CONTINUAL STRUGGLE AGAINST THE TENDENCY TO PRODUCE ENTROPY.
 Job cpu time:  0 days  0 hours 10 minutes  0.2 seconds.
 File lengths (MBytes):  RWF=    232 Int=      0 D2E=      0 Chk=     14 Scr=      4
 Normal termination of Gaussian 09 at Tue May  2 11:27:08 2017.
