 Entering Gaussian System, Link 0=/gscratch/pfaendtner/codes/G09/g09/g09
 Input=MEO.com
 Output=MEO.log
 Initial command:
 /gscratch/pfaendtner/codes/G09/g09/l1.exe /suppscr/pfaendtner/gscratch/josh/biomaterials/polymers/QM/MEO2MA/scratch/Gau-20647.inp -scrdir=/suppscr/pfaendtner/gscratch/josh/biomaterials/polymers/QM/MEO2MA/scratch/
 Entering Link 1 = /gscratch/pfaendtner/codes/G09/g09/l1.exe PID=     20652.
  
 Copyright (c) 1988,1990,1992,1993,1995,1998,2003,2009, Gaussian, Inc.
                  All Rights Reserved.
  
 This is part of the Gaussian(R) 09 program.  It is based on
 the Gaussian(R) 03 system (copyright 2003, Gaussian, Inc.),
 the Gaussian(R) 98 system (copyright 1998, Gaussian, Inc.),
 the Gaussian(R) 94 system (copyright 1995, Gaussian, Inc.),
 the Gaussian 92(TM) system (copyright 1992, Gaussian, Inc.),
 the Gaussian 90(TM) system (copyright 1990, Gaussian, Inc.),
 the Gaussian 88(TM) system (copyright 1988, Gaussian, Inc.),
 the Gaussian 86(TM) system (copyright 1986, Carnegie Mellon
 University), and the Gaussian 82(TM) system (copyright 1983,
 Carnegie Mellon University). Gaussian is a federally registered
 trademark of Gaussian, Inc.
  
 This software contains proprietary and confidential information,
 including trade secrets, belonging to Gaussian, Inc.
  
 This software is provided under written license and may be
 used, copied, transmitted, or stored only in accord with that
 written license.
  
 The following legend is applicable only to US Government
 contracts under FAR:
  
                    RESTRICTED RIGHTS LEGEND
  
 Use, reproduction and disclosure by the US Government is
 subject to restrictions as set forth in subparagraphs (a)
 and (c) of the Commercial Computer Software - Restricted
 Rights clause in FAR 52.227-19.
  
 Gaussian, Inc.
 340 Quinnipiac St., Bldg. 40, Wallingford CT 06492
  
  
 ---------------------------------------------------------------
 Warning -- This program may not be used in any manner that
 competes with the business of Gaussian, Inc. or will provide
 assistance to any competitor of Gaussian, Inc.  The licensee
 of this program is prohibited from giving any competitor of
 Gaussian, Inc. access to this program.  By using this program,
 the user acknowledges that Gaussian, Inc. is engaged in the
 business of creating and licensing software in the field of
 computational chemistry and represents and warrants to the
 licensee that it is not a competitor of Gaussian, Inc. and that
 it will not use this program in any manner prohibited above.
 ---------------------------------------------------------------
  

 Cite this work as:
 Gaussian 09, Revision A.02,
 M. J. Frisch, G. W. Trucks, H. B. Schlegel, G. E. Scuseria, 
 M. A. Robb, J. R. Cheeseman, G. Scalmani, V. Barone, B. Mennucci, 
 G. A. Petersson, H. Nakatsuji, M. Caricato, X. Li, H. P. Hratchian, 
 A. F. Izmaylov, J. Bloino, G. Zheng, J. L. Sonnenberg, M. Hada, 
 M. Ehara, K. Toyota, R. Fukuda, J. Hasegawa, M. Ishida, T. Nakajima, 
 Y. Honda, O. Kitao, H. Nakai, T. Vreven, J. A. Montgomery, Jr., 
 J. E. Peralta, F. Ogliaro, M. Bearpark, J. J. Heyd, E. Brothers, 
 K. N. Kudin, V. N. Staroverov, R. Kobayashi, J. Normand, 
 K. Raghavachari, A. Rendell, J. C. Burant, S. S. Iyengar, J. Tomasi, 
 M. Cossi, N. Rega, J. M. Millam, M. Klene, J. E. Knox, J. B. Cross, 
 V. Bakken, C. Adamo, J. Jaramillo, R. Gomperts, R. E. Stratmann, 
 O. Yazyev, A. J. Austin, R. Cammi, C. Pomelli, J. W. Ochterski, 
 R. L. Martin, K. Morokuma, V. G. Zakrzewski, G. A. Voth, 
 P. Salvador, J. J. Dannenberg, S. Dapprich, A. D. Daniels, 
 O. Farkas, J. B. Foresman, J. V. Ortiz, J. Cioslowski, 
 and D. J. Fox, Gaussian, Inc., Wallingford CT, 2009.
 
 ******************************************
 Gaussian 09:  EM64L-G09RevA.02 11-Jun-2009
                15-May-2018 
 ******************************************
 %chk=molecule
 -------------------------------------------------------------------
 #HF/6-31G* SCF=tight Test Pop=MK iop(6/33=2) NoSymm iop(6/42=6) opt
 -------------------------------------------------------------------
 1/18=20,19=15,38=1/1,3;
 2/9=110,12=2,15=1,17=6,18=5,40=1/2;
 3/5=1,6=6,7=1,11=9,16=1,25=1,30=1,71=1/1,2,3;
 4//1;
 5/5=2,32=2,38=5/2;
 6/7=2,8=2,9=2,10=2,15=8,20=1,28=1,33=2,42=6/1,2;
 7/30=1/1,2,3,16;
 1/18=20,19=15/3(2);
 2/9=110,15=1/2;
 99//99;
 2/9=110,15=1/2;
 3/5=1,6=6,7=1,11=9,16=1,25=1,30=1,71=1/1,2,3;
 4/5=5,16=3/1;
 5/5=2,32=2,38=5/2;
 7/30=1/1,2,3,16;
 1/18=20,19=15/3(-5);
 2/9=110,15=1/2;
 6/7=2,8=2,9=2,10=2,15=8,19=2,20=1,28=1,33=2,42=6/1,2;
 99/9=1/99;
 ---------------------
 remark line goes here
 ---------------------
 Symbolic Z-matrix:
 Charge =  0 Multiplicity = 1
 C                    -0.474     0.33      0.019 
 H                    -0.092     0.803     0.899 
 H                    -0.107     0.839    -0.848 
 C                    -2.013     0.384     0.033 
 H                    -2.333     1.405     0.057 
 H                    -2.395    -0.089    -0.847 
 H                    -2.38     -0.125     0.9 
 C                    -0.013    -1.139    -0.016 
 C                     1.526    -1.194    -0.03 
 H                     1.908    -0.721     0.85 
 H                     1.847    -2.214    -0.054 
 H                     1.893    -0.685    -0.897 
 C                    -0.563    -1.82     -1.283 
 H                    -1.632    -1.782    -1.273 
 H                    -0.196    -1.311    -2.149 
 H                    -0.242    -2.841    -1.306 
 C                    -0.541    -1.872     1.232 
 O                     0.11     -2.832     1.72 
 O                    -1.771    -1.462     1.835 
 C                    -1.726    -1.731     3.238 
 H                    -1.584    -2.779     3.397 
 H                    -0.915    -1.19      3.679 
 C                    -3.051    -1.289     3.888 
 H                    -3.194    -0.241     3.73 
 H                    -3.862    -1.83      3.447 
 O                    -3.007    -1.558     5.292 
 C                    -4.237    -1.148     5.895 
 H                    -4.379    -0.099     5.737 
 H                    -5.048    -1.689     5.454 
 C                    -4.189    -1.437     7.407 
 H                    -4.044    -2.486     7.565 
 H                    -3.379    -0.895     7.848 
 O                    -5.42     -1.03      8.009 
 C                    -5.391    -1.333     9.406 
 H                    -6.309    -1.019     9.858 
 H                    -5.27     -2.388     9.54 
 H                    -4.573    -0.819     9.866 
 

 GradGradGradGradGradGradGradGradGradGradGradGradGradGradGradGradGradGrad
 Berny optimization.
 Initialization pass.
                           ----------------------------
                           !    Initial Parameters    !
                           ! (Angstroms and Degrees)  !
 --------------------------                            --------------------------
 ! Name  Definition              Value          Derivative Info.                !
 --------------------------------------------------------------------------------
 ! R1    R(1,2)                  1.0696         estimate D2E/DX2                !
 ! R2    R(1,3)                  1.0703         estimate D2E/DX2                !
 ! R3    R(1,4)                  1.54           estimate D2E/DX2                !
 ! R4    R(1,8)                  1.54           estimate D2E/DX2                !
 ! R5    R(4,5)                  1.0702         estimate D2E/DX2                !
 ! R6    R(4,6)                  1.0696         estimate D2E/DX2                !
 ! R7    R(4,7)                  1.0703         estimate D2E/DX2                !
 ! R8    R(7,19)                 1.7415         estimate D2E/DX2                !
 ! R9    R(8,9)                  1.54           estimate D2E/DX2                !
 ! R10   R(8,13)                 1.54           estimate D2E/DX2                !
 ! R11   R(8,17)                 1.5406         estimate D2E/DX2                !
 ! R12   R(9,10)                 1.0696         estimate D2E/DX2                !
 ! R13   R(9,11)                 1.0696         estimate D2E/DX2                !
 ! R14   R(9,12)                 1.0703         estimate D2E/DX2                !
 ! R15   R(13,14)                1.0697         estimate D2E/DX2                !
 ! R16   R(13,15)                1.0695         estimate D2E/DX2                !
 ! R17   R(13,16)                1.0705         estimate D2E/DX2                !
 ! R18   R(17,18)                1.2584         estimate D2E/DX2                !
 ! R19   R(17,19)                1.4299         estimate D2E/DX2                !
 ! R20   R(19,20)                1.4293         estimate D2E/DX2                !
 ! R21   R(20,21)                1.0695         estimate D2E/DX2                !
 ! R22   R(20,22)                1.07           estimate D2E/DX2                !
 ! R23   R(20,23)                1.5406         estimate D2E/DX2                !
 ! R24   R(23,24)                1.0694         estimate D2E/DX2                !
 ! R25   R(23,25)                1.07           estimate D2E/DX2                !
 ! R26   R(23,26)                1.4302         estimate D2E/DX2                !
 ! R27   R(26,27)                1.4299         estimate D2E/DX2                !
 ! R28   R(27,28)                1.0703         estimate D2E/DX2                !
 ! R29   R(27,29)                1.07           estimate D2E/DX2                !
 ! R30   R(27,30)                1.5401         estimate D2E/DX2                !
 ! R31   R(30,31)                1.0707         estimate D2E/DX2                !
 ! R32   R(30,32)                1.0697         estimate D2E/DX2                !
 ! R33   R(30,33)                1.4295         estimate D2E/DX2                !
 ! R34   R(33,34)                1.4298         estimate D2E/DX2                !
 ! R35   R(34,35)                1.0703         estimate D2E/DX2                !
 ! R36   R(34,36)                1.0703         estimate D2E/DX2                !
 ! R37   R(34,37)                1.07           estimate D2E/DX2                !
 ! A1    A(2,1,3)              109.4937         estimate D2E/DX2                !
 ! A2    A(2,1,4)              109.507          estimate D2E/DX2                !
 ! A3    A(2,1,8)              109.4882         estimate D2E/DX2                !
 ! A4    A(3,1,4)              109.4734         estimate D2E/DX2                !
 ! A5    A(3,1,8)              109.4261         estimate D2E/DX2                !
 ! A6    A(4,1,8)              109.4389         estimate D2E/DX2                !
 ! A7    A(1,4,5)              109.418          estimate D2E/DX2                !
 ! A8    A(1,4,6)              109.507          estimate D2E/DX2                !
 ! A9    A(1,4,7)              109.4734         estimate D2E/DX2                !
 ! A10   A(5,4,6)              109.4837         estimate D2E/DX2                !
 ! A11   A(5,4,7)              109.4515         estimate D2E/DX2                !
 ! A12   A(6,4,7)              109.4937         estimate D2E/DX2                !
 ! A13   A(1,8,9)              109.4761         estimate D2E/DX2                !
 ! A14   A(1,8,13)             109.4877         estimate D2E/DX2                !
 ! A15   A(1,8,17)             109.4407         estimate D2E/DX2                !
 ! A16   A(9,8,13)             109.4894         estimate D2E/DX2                !
 ! A17   A(9,8,17)             109.4421         estimate D2E/DX2                !
 ! A18   A(13,8,17)            109.4914         estimate D2E/DX2                !
 ! A19   A(8,9,10)             109.489          estimate D2E/DX2                !
 ! A20   A(8,9,11)             109.5223         estimate D2E/DX2                !
 ! A21   A(8,9,12)             109.4542         estimate D2E/DX2                !
 ! A22   A(10,9,11)            109.4507         estimate D2E/DX2                !
 ! A23   A(10,9,12)            109.4937         estimate D2E/DX2                !
 ! A24   A(11,9,12)            109.4174         estimate D2E/DX2                !
 ! A25   A(8,13,14)            109.4817         estimate D2E/DX2                !
 ! A26   A(8,13,15)            109.4625         estimate D2E/DX2                !
 ! A27   A(8,13,16)            109.4109         estimate D2E/DX2                !
 ! A28   A(14,13,15)           109.4873         estimate D2E/DX2                !
 ! A29   A(14,13,16)           109.4955         estimate D2E/DX2                !
 ! A30   A(15,13,16)           109.4893         estimate D2E/DX2                !
 ! A31   A(8,17,18)            119.9868         estimate D2E/DX2                !
 ! A32   A(8,17,19)            119.9992         estimate D2E/DX2                !
 ! A33   A(18,17,19)           120.014          estimate D2E/DX2                !
 ! A34   A(17,19,20)           109.4455         estimate D2E/DX2                !
 ! A35   A(19,20,21)           109.5454         estimate D2E/DX2                !
 ! A36   A(19,20,22)           109.4681         estimate D2E/DX2                !
 ! A37   A(19,20,23)           109.4559         estimate D2E/DX2                !
 ! A38   A(21,20,22)           109.4844         estimate D2E/DX2                !
 ! A39   A(21,20,23)           109.4272         estimate D2E/DX2                !
 ! A40   A(22,20,23)           109.4462         estimate D2E/DX2                !
 ! A41   A(20,23,24)           109.5003         estimate D2E/DX2                !
 ! A42   A(20,23,25)           109.4462         estimate D2E/DX2                !
 ! A43   A(20,23,26)           109.497          estimate D2E/DX2                !
 ! A44   A(24,23,25)           109.465          estimate D2E/DX2                !
 ! A45   A(24,23,26)           109.4788         estimate D2E/DX2                !
 ! A46   A(25,23,26)           109.44           estimate D2E/DX2                !
 ! A47   A(23,26,27)           109.4865         estimate D2E/DX2                !
 ! A48   A(26,27,28)           109.445          estimate D2E/DX2                !
 ! A49   A(26,27,29)           109.4634         estimate D2E/DX2                !
 ! A50   A(26,27,30)           109.4749         estimate D2E/DX2                !
 ! A51   A(28,27,29)           109.5208         estimate D2E/DX2                !
 ! A52   A(28,27,30)           109.4496         estimate D2E/DX2                !
 ! A53   A(29,27,30)           109.4736         estimate D2E/DX2                !
 ! A54   A(27,30,31)           109.4473         estimate D2E/DX2                !
 ! A55   A(27,30,32)           109.466          estimate D2E/DX2                !
 ! A56   A(27,30,33)           109.4617         estimate D2E/DX2                !
 ! A57   A(31,30,32)           109.4522         estimate D2E/DX2                !
 ! A58   A(31,30,33)           109.4769         estimate D2E/DX2                !
 ! A59   A(32,30,33)           109.5233         estimate D2E/DX2                !
 ! A60   A(30,33,34)           109.4919         estimate D2E/DX2                !
 ! A61   A(33,34,35)           109.454          estimate D2E/DX2                !
 ! A62   A(33,34,36)           109.4815         estimate D2E/DX2                !
 ! A63   A(33,34,37)           109.4967         estimate D2E/DX2                !
 ! A64   A(35,34,36)           109.4662         estimate D2E/DX2                !
 ! A65   A(35,34,37)           109.4633         estimate D2E/DX2                !
 ! A66   A(36,34,37)           109.4657         estimate D2E/DX2                !
 ! D1    D(2,1,4,5)             59.9955         estimate D2E/DX2                !
 ! D2    D(2,1,4,6)            180.0            estimate D2E/DX2                !
 ! D3    D(2,1,4,7)            -59.9492         estimate D2E/DX2                !
 ! D4    D(3,1,4,5)            -60.0554         estimate D2E/DX2                !
 ! D5    D(3,1,4,6)             59.9492         estimate D2E/DX2                !
 ! D6    D(3,1,4,7)            180.0            estimate D2E/DX2                !
 ! D7    D(8,1,4,5)           -179.9817         estimate D2E/DX2                !
 ! D8    D(8,1,4,6)            -59.9772         estimate D2E/DX2                !
 ! D9    D(8,1,4,7)             60.0737         estimate D2E/DX2                !
 ! D10   D(2,1,8,9)            -59.9648         estimate D2E/DX2                !
 ! D11   D(2,1,8,13)           179.9999         estimate D2E/DX2                !
 ! D12   D(2,1,8,17)            59.9838         estimate D2E/DX2                !
 ! D13   D(3,1,8,9)             60.0455         estimate D2E/DX2                !
 ! D14   D(3,1,8,13)           -59.9898         estimate D2E/DX2                !
 ! D15   D(3,1,8,17)           179.9941         estimate D2E/DX2                !
 ! D16   D(4,1,8,9)           -179.9992         estimate D2E/DX2                !
 ! D17   D(4,1,8,13)            59.9656         estimate D2E/DX2                !
 ! D18   D(4,1,8,17)           -60.0505         estimate D2E/DX2                !
 ! D19   D(1,8,9,10)            59.9654         estimate D2E/DX2                !
 ! D20   D(1,8,9,11)           179.9824         estimate D2E/DX2                !
 ! D21   D(1,8,9,12)           -60.0627         estimate D2E/DX2                !
 ! D22   D(13,8,9,10)          179.9996         estimate D2E/DX2                !
 ! D23   D(13,8,9,11)          -59.9834         estimate D2E/DX2                !
 ! D24   D(13,8,9,12)           59.9715         estimate D2E/DX2                !
 ! D25   D(17,8,9,10)          -59.9824         estimate D2E/DX2                !
 ! D26   D(17,8,9,11)           60.0346         estimate D2E/DX2                !
 ! D27   D(17,8,9,12)          179.9895         estimate D2E/DX2                !
 ! D28   D(1,8,13,14)          -59.9905         estimate D2E/DX2                !
 ! D29   D(1,8,13,15)           60.0302         estimate D2E/DX2                !
 ! D30   D(1,8,13,16)         -179.9898         estimate D2E/DX2                !
 ! D31   D(9,8,13,14)          179.9823         estimate D2E/DX2                !
 ! D32   D(9,8,13,15)          -59.9969         estimate D2E/DX2                !
 ! D33   D(9,8,13,16)           59.9831         estimate D2E/DX2                !
 ! D34   D(17,8,13,14)          59.9945         estimate D2E/DX2                !
 ! D35   D(17,8,13,15)        -179.9847         estimate D2E/DX2                !
 ! D36   D(17,8,13,16)         -60.0047         estimate D2E/DX2                !
 ! D37   D(1,8,17,18)         -150.0076         estimate D2E/DX2                !
 ! D38   D(1,8,17,19)           30.0345         estimate D2E/DX2                !
 ! D39   D(9,8,17,18)          -30.0381         estimate D2E/DX2                !
 ! D40   D(9,8,17,19)          150.0039         estimate D2E/DX2                !
 ! D41   D(13,8,17,18)          89.9786         estimate D2E/DX2                !
 ! D42   D(13,8,17,19)         -89.9793         estimate D2E/DX2                !
 ! D43   D(8,17,19,20)        -150.0345         estimate D2E/DX2                !
 ! D44   D(18,17,19,20)         30.0075         estimate D2E/DX2                !
 ! D45   D(17,19,20,21)        -60.0325         estimate D2E/DX2                !
 ! D46   D(17,19,20,22)         60.0272         estimate D2E/DX2                !
 ! D47   D(17,19,20,23)        179.9853         estimate D2E/DX2                !
 ! D48   D(19,20,23,24)        -59.9665         estimate D2E/DX2                !
 ! D49   D(19,20,23,25)         60.0284         estimate D2E/DX2                !
 ! D50   D(19,20,23,26)        179.9906         estimate D2E/DX2                !
 ! D51   D(21,20,23,24)        179.979          estimate D2E/DX2                !
 ! D52   D(21,20,23,25)        -60.0261         estimate D2E/DX2                !
 ! D53   D(21,20,23,26)         59.9361         estimate D2E/DX2                !
 ! D54   D(22,20,23,24)         60.005          estimate D2E/DX2                !
 ! D55   D(22,20,23,25)        180.0            estimate D2E/DX2                !
 ! D56   D(22,20,23,26)        -60.0378         estimate D2E/DX2                !
 ! D57   D(20,23,26,27)       -179.9853         estimate D2E/DX2                !
 ! D58   D(24,23,26,27)         59.9586         estimate D2E/DX2                !
 ! D59   D(25,23,26,27)        -60.0193         estimate D2E/DX2                !
 ! D60   D(23,26,27,28)        -60.0062         estimate D2E/DX2                !
 ! D61   D(23,26,27,29)         60.0337         estimate D2E/DX2                !
 ! D62   D(23,26,27,30)       -179.9659         estimate D2E/DX2                !
 ! D63   D(26,27,30,31)        -59.8744         estimate D2E/DX2                !
 ! D64   D(26,27,30,32)         60.0844         estimate D2E/DX2                !
 ! D65   D(26,27,30,33)       -179.8609         estimate D2E/DX2                !
 ! D66   D(28,27,30,31)       -179.8313         estimate D2E/DX2                !
 ! D67   D(28,27,30,32)        -59.8725         estimate D2E/DX2                !
 ! D68   D(28,27,30,33)         60.1823         estimate D2E/DX2                !
 ! D69   D(29,27,30,31)         60.1198         estimate D2E/DX2                !
 ! D70   D(29,27,30,32)       -179.9214         estimate D2E/DX2                !
 ! D71   D(29,27,30,33)        -59.8666         estimate D2E/DX2                !
 ! D72   D(27,30,33,34)        178.3589         estimate D2E/DX2                !
 ! D73   D(31,30,33,34)         58.3906         estimate D2E/DX2                !
 ! D74   D(32,30,33,34)        -61.6215         estimate D2E/DX2                !
 ! D75   D(30,33,34,35)        179.4306         estimate D2E/DX2                !
 ! D76   D(30,33,34,36)        -60.5798         estimate D2E/DX2                !
 ! D77   D(30,33,34,37)         59.4353         estimate D2E/DX2                !
 --------------------------------------------------------------------------------
 Trust Radius=3.00D-01 FncErr=1.00D-07 GrdErr=1.00D-07
 Number of steps in this run= 190 maximum allowed number of steps= 222.
 GradGradGradGradGradGradGradGradGradGradGradGradGradGradGradGradGradGrad

                          Input orientation:                          
 ---------------------------------------------------------------------
 Center     Atomic      Atomic             Coordinates (Angstroms)
 Number     Number       Type             X           Y           Z
 ---------------------------------------------------------------------
      1          6           0       -0.474000    0.330000    0.019000
      2          1           0       -0.092000    0.803000    0.899000
      3          1           0       -0.107000    0.839000   -0.848000
      4          6           0       -2.013000    0.384000    0.033000
      5          1           0       -2.333000    1.405000    0.057000
      6          1           0       -2.395000   -0.089000   -0.847000
      7          1           0       -2.380000   -0.125000    0.900000
      8          6           0       -0.013000   -1.139000   -0.016000
      9          6           0        1.526000   -1.194000   -0.030000
     10          1           0        1.908000   -0.721000    0.850000
     11          1           0        1.847000   -2.214000   -0.054000
     12          1           0        1.893000   -0.685000   -0.897000
     13          6           0       -0.563000   -1.820000   -1.283000
     14          1           0       -1.632000   -1.782000   -1.273000
     15          1           0       -0.196000   -1.311000   -2.149000
     16          1           0       -0.242000   -2.841000   -1.306000
     17          6           0       -0.541000   -1.872000    1.232000
     18          8           0        0.110000   -2.832000    1.720000
     19          8           0       -1.771000   -1.462000    1.835000
     20          6           0       -1.726000   -1.731000    3.238000
     21          1           0       -1.584000   -2.779000    3.397000
     22          1           0       -0.915000   -1.190000    3.679000
     23          6           0       -3.051000   -1.289000    3.888000
     24          1           0       -3.194000   -0.241000    3.730000
     25          1           0       -3.862000   -1.830000    3.447000
     26          8           0       -3.007000   -1.558000    5.292000
     27          6           0       -4.237000   -1.148000    5.895000
     28          1           0       -4.379000   -0.099000    5.737000
     29          1           0       -5.048000   -1.689000    5.454000
     30          6           0       -4.189000   -1.437000    7.407000
     31          1           0       -4.044000   -2.486000    7.565000
     32          1           0       -3.379000   -0.895000    7.848000
     33          8           0       -5.420000   -1.030000    8.009000
     34          6           0       -5.391000   -1.333000    9.406000
     35          1           0       -6.309000   -1.019000    9.858000
     36          1           0       -5.270000   -2.388000    9.540000
     37          1           0       -4.573000   -0.819000    9.866000
 ---------------------------------------------------------------------
                    Distance matrix (angstroms):
                    1          2          3          4          5
     1  C    0.000000
     2  H    1.069604   0.000000
     3  H    1.070261   1.747435   0.000000
     4  C    1.540011   2.148432   2.148493   0.000000
     5  H    2.147778   2.468491   2.468695   1.070242   0.000000
     6  H    2.148432   3.024564   2.469034   1.069604   1.747311
     7  H    2.148493   2.469034   3.025116   1.070261   1.747501
     8  C    1.540035   2.148216   2.147916   2.514345   3.443786
     9  C    2.514951   2.732942   2.732929   3.875380   4.653413
    10  H    2.732963   2.514951   3.062193   4.154847   4.809865
    11  H    3.444460   3.710825   3.710709   4.653684   5.530089
    12  H    2.733490   3.062676   2.514951   4.155057   4.810124
    13  C    2.515080   3.444284   2.732662   2.948215   3.915243
    14  H    2.733271   3.710985   3.062008   2.557802   3.523815
    15  H    2.733201   3.710811   2.514562   3.306908   4.099983
    16  H    3.444516   4.261838   3.710847   3.915353   4.925299
    17  C    2.514888   2.732785   3.444456   2.948546   3.915433
    18  O    3.637678   3.732033   4.485304   4.206632   5.165848
    19  O    2.862050   2.970751   3.906659   2.591039   3.420061
    20  C    4.022087   3.816023   5.091312   3.850665   4.507960
    21  H    4.723226   4.614845   5.769877   4.637360   5.405780
    22  H    3.987541   3.518207   5.026274   4.120242   4.675856
    23  C    4.922525   4.697474   5.968686   4.328672   4.738114
    24  H    4.636374   4.327459   5.626193   3.931055   4.116013
    25  H    5.281603   5.257175   6.298461   4.469451   4.929013
    26  O    6.146964   5.776677   7.201056   5.693547   6.053005
    27  C    7.132463   6.778454   8.153105   6.454165   6.650208
    28  H    6.937477   6.526731   7.905192   6.194099   6.221779
    29  H    7.384921   7.177745   8.397587   6.549488   6.787612
    30  C    8.456125   8.009811   9.486197   7.901069   8.095937
    31  H    8.810044   8.418514   9.865808   8.312213   8.627715
    32  H    8.439958   7.872495   9.451622   8.035921   8.190470
    33  O    9.494873   9.071911  10.496074   8.787697   8.870913
    34  C   10.726520  10.247485  11.738090  10.110000  10.210378
    35  H   11.518374  11.055969  12.511411  10.814557  10.850989
    36  H   11.001754  10.566979  12.040791  10.424734  10.627328
    37  H   10.727787  10.154671  11.725354  10.231750  10.304380
                    6          7          8          9         10
     6  H    0.000000
     7  H    1.747435   0.000000
     8  C    2.732578   2.733119   0.000000
     9  C    4.154847   4.155057   1.540046   0.000000
    10  H    4.668516   4.329510   2.148237   1.069604   0.000000
    11  H    4.810305   4.810568   2.148644   1.069587   1.746421
    12  H    4.329510   4.669190   2.148281   1.070261   1.747435
    13  C    2.557866   3.307568   1.539984   2.515116   3.444319
    14  H    1.905228   2.833211   2.148176   3.444380   4.261977
    15  H    2.832682   3.933555   2.147734   2.732972   3.710649
    16  H    3.524144   4.100504   2.147870   2.732510   3.710153
    17  C    3.307362   2.558154   1.540642   2.514919   2.732824
    18  O    4.515370   3.768335   2.427977   2.783990   2.906205
    19  O    3.076951   1.741458   2.573149   3.797401   3.879993
    20  C    4.453195   2.910875   3.724694   4.641519   4.464146
    21  H    5.089731   3.729925   4.099538   4.891692   4.787132
    22  H    4.887461   3.317121   3.803844   4.440178   4.023994
    23  C    4.928546   3.276169   4.949056   6.025668   5.843265
    24  H    4.648702   2.947024   4.995766   6.109354   5.878367
    25  H    4.860206   3.404491   5.223471   6.443956   6.423954
    26  O    6.341910   4.662219   6.108556   7.000305   6.677511
    27  C    7.068876   5.426325   7.265134   8.265586   7.962122
    28  H    6.876439   5.233856   7.296613   8.326244   7.987241
    29  H    7.021468   5.504838   7.454839   8.575358   8.397605
    30  C    8.553599   6.880034   8.522248   9.382390   8.982222
    31  H    8.900930   7.263983   8.691083   9.506744   9.145095
    32  H    8.787543   7.061558   8.557569   9.285005   8.772380
    33  O    9.405575   7.784504   9.677198  10.625410  10.249212
    34  C   10.753956   9.103704  10.850558  11.700526  11.262996
    35  H   11.435966   9.822527  11.711101  12.617068  12.196391
    36  H   11.020018   9.387378  10.977850  11.798142  11.393800
    37  H   10.956503   9.256351  10.888063  11.630531  11.104108
                   11         12         13         14         15
    11  H    0.000000
    12  H    1.746598   0.000000
    13  C    2.733821   2.732976   0.000000
    14  H    3.711607   3.710850   1.069722   0.000000
    15  H    3.062398   2.514617   1.069451   1.746801   0.000000
    16  H    2.514867   3.061673   1.070519   1.747761   1.747474
    17  C    2.733734   3.444701   2.515634   2.733753   3.444547
    18  O    2.558548   3.825884   3.239611   3.618717   4.168481
    19  O    4.150150   4.635995   3.362938   3.127521   4.286687
    20  C    4.882303   5.593702   4.669040   4.512268   5.615787
    21  H    4.899019   5.908706   4.885133   4.775480   5.902515
    22  H    4.755261   5.392556   5.014205   5.038537   5.873431
    23  C    6.354950   6.906821   5.762929   5.375177   6.678089
    24  H    6.604776   6.890851   5.877548   5.463015   6.685473
    25  H    6.707991   7.300780   5.766836   5.220498   6.710002
    26  O    7.250612   7.942031   7.019431   6.711187   7.958091
    27  C    8.575664   9.160924   8.091572   7.652987   9.003454
    28  H    8.761962   9.148297   8.173377   7.714830   9.008631
    29  H    8.840515   9.461538   8.094415   7.545213   9.027203
    30  C    9.628268  10.320496   9.423941   9.055367  10.357464
    31  H    9.634678  10.492712   9.531423   9.188232  10.514253
    32  H    9.565168  10.213379   9.600033   9.329063  10.499741
    33  O   10.918934  11.528913  10.514552  10.053356  11.426027
    34  C   11.943886  12.634412  11.738887  11.330169  12.669117
    35  H   12.891707  13.529759  12.561051  12.097754  13.476724
    36  H   11.946832  12.772617  11.815913  11.424677  12.788203
    37  H   11.898270  12.556643  11.890429  11.560890  12.796891
                   16         17         18         19         20
    16  H    0.000000
    17  C    2.733095   0.000000
    18  O    3.046418   1.258390   0.000000
    19  O    3.755711   1.429898   2.329868   0.000000
    20  C    4.907371   2.334126   2.624390   1.429264   0.000000
    21  H    4.891116   2.568603   2.384276   2.051658   1.069462
    22  H    5.294238   2.567647   2.753992   2.051111   1.069992
    23  C    6.105475   3.700584   4.131948   2.425518   1.540613
    24  H    6.390274   3.992314   4.655083   2.665857   2.148764
    25  H    6.059499   3.992121   4.445595   2.665755   2.148483
    26  O    7.268075   4.760604   4.908966   3.672569   2.426892
    27  C    8.407180   5.994010   6.258026   4.760604   3.701980
    28  H    8.616100   6.178090   6.614885   4.887232   3.993349
    29  H    8.373908   6.178335   6.469480   4.887476   3.993508
    30  C    9.667802   7.185246   7.264255   6.074087   4.851120
    31  H    9.657943   7.263256   7.179099   6.248840   4.966496
    32  H    9.870329   7.265000   7.312829   6.250066   4.968240
    33  O   10.810210   8.392934   8.566191   7.184713   6.074494
    34  C   11.980535   9.519837   9.569880   8.392919   7.185740
    35  H   12.836007  10.411787  10.522242   9.228121   8.083021
    36  H   11.963349   9.573534   9.502312   8.512785   7.259944
    37  H   12.151528   9.587064   9.609369   8.530042   7.271007
                   21         22         23         24         25
    21  H    0.000000
    22  H    1.746999   0.000000
    23  C    2.147852   2.148483   0.000000
    24  H    3.023976   2.469219   1.069447   0.000000
    25  H    2.468276   3.024605   1.069992   1.746778   0.000000
    26  O    2.665857   2.667144   1.430214   2.051658   2.051593
    27  C    3.992314   3.993508   2.335493   2.568603   2.568745
    28  H    4.524381   4.174319   2.568752   2.335046   2.916805
    29  H    4.173565   4.525629   2.569118   2.916538   2.335493
    30  C    4.966597   4.967703   3.701393   3.992589   3.992866
    31  H    4.848677   5.154731   3.992391   4.524351   4.173893
    32  H    5.155859   4.851689   3.993046   4.173711   4.525076
    33  O    6.248555   6.250562   4.760450   4.887478   4.886636
    34  C    7.258942   7.270045   5.993818   6.183547   6.172077
    35  H    8.195593   8.203933   6.806494   6.918157   6.909881
    36  H    7.174673   7.399497   6.170646   6.532648   6.278414
    37  H    7.390784   7.197053   6.186588   6.315554   6.536911
                   26         27         28         29         30
    26  O    0.000000
    27  C    1.429898   0.000000
    28  H    2.051607   1.070294   0.000000
    29  H    2.051606   1.069992   1.748070   0.000000
    30  C    2.425900   1.540120   2.148312   2.148393   0.000000
    31  H    2.665161   2.148579   3.025158   2.469726   1.070696
    32  H    2.666663   2.148111   2.467780   3.024439   1.069741
    33  O    3.671981   2.425368   2.666913   2.664712   1.429480
    34  C    4.760155   3.700414   4.001057   3.982799   2.334871
    35  H    5.660572   4.473834   4.642622   4.629712   3.267495
    36  H    4.884217   3.986316   4.527274   4.151299   2.573451
    37  H    4.890803   3.998747   4.195793   4.521976   2.564383
                   31         32         33         34         35
    31  H    0.000000
    32  H    1.747454   0.000000
    33  O    2.051938   2.051786   0.000000
    34  C    2.555993   2.582122   1.429776   0.000000
    35  H    3.541209   3.555331   2.051644   1.070338   0.000000
    36  H    2.326651   2.944112   2.051981   1.070337   1.747800
    37  H    2.890213   2.346004   2.051921   1.070009   1.747501
                   36         37
    36  H    0.000000
    37  H    1.747526   0.000000
 Symmetry turned off by external request.
 Stoichiometry    C11H22O4
 Framework group  C1[X(C11H22O4)]
 Deg. of freedom   105
 Full point group                 C1      NOp   1
 Rotational constants (GHZ):      1.7459445      0.1548036      0.1483868
 Standard basis: 6-31G(d) (6D, 7F)
 Integral buffers will be    131072 words long.
 Raffenetti 1 integral format.
 Two-electron integral symmetry is turned off.
   269 basis functions,   508 primitive gaussians,   269 cartesian basis functions
    60 alpha electrons       60 beta electrons
       nuclear repulsion energy      1035.9294131774 Hartrees.
 NAtoms=   37 NActive=   37 NUniq=   37 SFac= 7.50D-01 NAtFMM=   80 NAOKFM=F Big=F
 One-electron integrals computed using PRISM.
 NBasis=   269 RedAO= T  NBF=   269
 NBsUse=   269 1.00D-06 NBFU=   269
 Harris functional with IExCor=  205 diagonalized for initial guess.
 ExpMin= 1.61D-01 ExpMax= 5.48D+03 ExpMxC= 8.25D+02 IAcc=1 IRadAn=         1 AccDes= 0.00D+00
 HarFok:  IExCor=  205 AccDes= 0.00D+00 IRadAn=         1 IDoV= 1
 ScaDFX=  1.000000  1.000000  1.000000  1.000000
 FoFCou: FMM=F IPFlag=           0 FMFlag=      100000 FMFlg1=           0
         NFxFlg=           0 DoJE=T BraDBF=F KetDBF=T FulRan=T
         Omega=  0.000000  0.000000  1.000000  0.000000  0.000000 ICntrl=     500 IOpCl=  0
         NMat0=    1 NMatS0=    1 NMatT0=    0 NMatD0=    1 NMtDS0=    0 NMtDT0=    0
         I1Cent=           4 NGrid=           0.
 Symmetry not used in FoFCou.
 Requested convergence on RMS density matrix=1.00D-08 within 128 cycles.
 Requested convergence on MAX density matrix=1.00D-06.
 Requested convergence on             energy=1.00D-06.
 No special actions if energy rises.
 Integral accuracy reduced to 1.0D-05 until final iterations.
 Initial convergence to 1.0D-05 achieved.  Increase integral accuracy.
 SCF Done:  E(RHF) =  -728.739003020     A.U. after   14 cycles
             Convg  =    0.8130D-08             -V/T =  2.0014

 **********************************************************************

            Population analysis using the SCF density.

 **********************************************************************

 Alpha  occ. eigenvalues --  -20.61236 -20.56996 -20.56217 -20.56178 -11.39776
 Alpha  occ. eigenvalues --  -11.28216 -11.28030 -11.27458 -11.27189 -11.26671
 Alpha  occ. eigenvalues --  -11.25988 -11.22091 -11.22035 -11.21249 -11.18688
 Alpha  occ. eigenvalues --   -1.43595  -1.37657  -1.36280  -1.34024  -1.12431
 Alpha  occ. eigenvalues --   -1.04227  -1.00196  -0.99239  -0.95091  -0.91934
 Alpha  occ. eigenvalues --   -0.88481  -0.86249  -0.84438  -0.82218  -0.75352
 Alpha  occ. eigenvalues --   -0.70708  -0.68449  -0.68107  -0.67002  -0.65632
 Alpha  occ. eigenvalues --   -0.64909  -0.63664  -0.62657  -0.61405  -0.60956
 Alpha  occ. eigenvalues --   -0.60738  -0.58617  -0.57819  -0.56308  -0.55973
 Alpha  occ. eigenvalues --   -0.54210  -0.53770  -0.52578  -0.52079  -0.50818
 Alpha  occ. eigenvalues --   -0.50092  -0.48758  -0.47429  -0.47277  -0.46136
 Alpha  occ. eigenvalues --   -0.45062  -0.44587  -0.43439  -0.43124  -0.42722
 Alpha virt. eigenvalues --    0.15002   0.22006   0.23157   0.23461   0.25235
 Alpha virt. eigenvalues --    0.27436   0.28373   0.28480   0.28819   0.29459
 Alpha virt. eigenvalues --    0.30308   0.30922   0.31539   0.31744   0.32062
 Alpha virt. eigenvalues --    0.32981   0.33545   0.34038   0.34914   0.35189
 Alpha virt. eigenvalues --    0.36424   0.36979   0.37179   0.37299   0.38366
 Alpha virt. eigenvalues --    0.38956   0.40338   0.41433   0.41527   0.42168
 Alpha virt. eigenvalues --    0.43131   0.43804   0.44342   0.47376   0.50192
 Alpha virt. eigenvalues --    0.53666   0.56896   0.68333   0.68923   0.70307
 Alpha virt. eigenvalues --    0.71515   0.73970   0.74512   0.75577   0.76258
 Alpha virt. eigenvalues --    0.77980   0.78124   0.79400   0.80156   0.80770
 Alpha virt. eigenvalues --    0.81904   0.82527   0.84268   0.84762   0.85527
 Alpha virt. eigenvalues --    0.88922   0.90077   0.92483   0.93758   0.95957
 Alpha virt. eigenvalues --    0.97042   0.97916   0.99590   1.00552   1.01658
 Alpha virt. eigenvalues --    1.02367   1.03906   1.07208   1.08641   1.09565
 Alpha virt. eigenvalues --    1.09990   1.11566   1.13517   1.14000   1.14713
 Alpha virt. eigenvalues --    1.15673   1.16272   1.17927   1.18501   1.18906
 Alpha virt. eigenvalues --    1.19112   1.19918   1.20164   1.20561   1.20889
 Alpha virt. eigenvalues --    1.21834   1.22035   1.22917   1.23411   1.24732
 Alpha virt. eigenvalues --    1.25744   1.26024   1.26841   1.29133   1.30592
 Alpha virt. eigenvalues --    1.31868   1.34336   1.34837   1.36605   1.37886
 Alpha virt. eigenvalues --    1.41488   1.43067   1.44675   1.46134   1.50501
 Alpha virt. eigenvalues --    1.53927   1.57288   1.58304   1.61968   1.63721
 Alpha virt. eigenvalues --    1.66494   1.67315   1.68218   1.68501   1.72712
 Alpha virt. eigenvalues --    1.73618   1.75009   1.76317   1.77679   1.79718
 Alpha virt. eigenvalues --    1.81201   1.85512   1.89697   1.91307   1.93419
 Alpha virt. eigenvalues --    1.97522   1.99532   2.00073   2.07094   2.08620
 Alpha virt. eigenvalues --    2.09217   2.11986   2.12330   2.13343   2.14469
 Alpha virt. eigenvalues --    2.15006   2.17280   2.18168   2.19937   2.23021
 Alpha virt. eigenvalues --    2.25140   2.26849   2.30496   2.30804   2.32246
 Alpha virt. eigenvalues --    2.33346   2.35625   2.36389   2.38037   2.39391
 Alpha virt. eigenvalues --    2.40914   2.41956   2.43236   2.43406   2.44186
 Alpha virt. eigenvalues --    2.47747   2.49277   2.50626   2.52446   2.54235
 Alpha virt. eigenvalues --    2.55290   2.56898   2.60829   2.61834   2.62176
 Alpha virt. eigenvalues --    2.63313   2.65310   2.67435   2.69248   2.69797
 Alpha virt. eigenvalues --    2.71085   2.73887   2.76041   2.78581   2.83659
 Alpha virt. eigenvalues --    2.84237   2.86033   2.86202   2.90270   2.96605
 Alpha virt. eigenvalues --    2.97651   3.00578   3.02283   3.03749   3.06257
 Alpha virt. eigenvalues --    3.08043   3.10625   3.13457   3.16659   3.28581
 Alpha virt. eigenvalues --    3.34843   3.36027   3.42335   3.47036   4.27081
 Alpha virt. eigenvalues --    4.41071   4.50246   4.59065   4.64734   4.65519
 Alpha virt. eigenvalues --    4.68408   4.72841   4.73487   4.76905   4.78620
 Alpha virt. eigenvalues --    4.87020   4.89969   4.92995   5.15555
          Condensed to atoms (all electrons):
              1          2          3          4          5          6
     1  C    5.144512   0.401452   0.402247   0.331298  -0.037951  -0.041870
     2  H    0.401452   0.540247  -0.025001  -0.038641  -0.002511   0.004181
     3  H    0.402247  -0.025001   0.527332  -0.036867  -0.003033  -0.002016
     4  C    0.331298  -0.038641  -0.036867   5.211685   0.389701   0.394914
     5  H   -0.037951  -0.002511  -0.003033   0.389701   0.540686  -0.025053
     6  H   -0.041870   0.004181  -0.002016   0.394914  -0.025053   0.552992
     7  H   -0.038578  -0.001689   0.003423   0.407757  -0.021624  -0.024996
     8  C    0.340107  -0.044281  -0.038144  -0.058143   0.005141  -0.006110
     9  C   -0.072767  -0.003463  -0.003420   0.005120  -0.000097  -0.000136
    10  H   -0.003330   0.002888   0.000001  -0.000065  -0.000002   0.000001
    11  H    0.005173  -0.000063  -0.000053  -0.000130   0.000002   0.000002
    12  H   -0.004969  -0.000010   0.001966  -0.000037  -0.000002   0.000001
    13  C   -0.066679   0.005070  -0.004637  -0.008341   0.000173  -0.002897
    14  H   -0.004922  -0.000132   0.000122  -0.002379   0.000147  -0.004394
    15  H   -0.004276  -0.000022   0.002803  -0.000087  -0.000053   0.000149
    16  H    0.005374  -0.000100  -0.000104   0.000095   0.000002   0.000232
    17  C   -0.065886  -0.002873   0.004898  -0.005162  -0.000083   0.000072
    18  O    0.001993   0.000038  -0.000050  -0.000168   0.000001  -0.000003
    19  O    0.011938   0.001061  -0.000064  -0.057327   0.001064   0.001164
    20  C   -0.000594  -0.000037   0.000010   0.002341  -0.000046  -0.000038
    21  H    0.000039   0.000005   0.000000  -0.000148   0.000001   0.000004
    22  H   -0.000121   0.000028  -0.000004  -0.000058   0.000006  -0.000004
    23  C   -0.000073  -0.000007   0.000000   0.000114  -0.000005   0.000002
    24  H    0.000011   0.000009   0.000000  -0.000189   0.000022   0.000002
    25  H   -0.000001   0.000000   0.000000  -0.000007   0.000001  -0.000002
    26  O    0.000000   0.000000   0.000000   0.000000   0.000000   0.000000
    27  C    0.000000   0.000000   0.000000   0.000000   0.000000   0.000000
    28  H    0.000000   0.000000   0.000000   0.000000   0.000000   0.000000
    29  H    0.000000   0.000000   0.000000   0.000000   0.000000   0.000000
    30  C    0.000000   0.000000   0.000000   0.000000   0.000000   0.000000
    31  H    0.000000   0.000000   0.000000   0.000000   0.000000   0.000000
    32  H    0.000000   0.000000   0.000000   0.000000   0.000000   0.000000
    33  O    0.000000   0.000000   0.000000   0.000000   0.000000   0.000000
    34  C    0.000000   0.000000   0.000000   0.000000   0.000000   0.000000
    35  H    0.000000   0.000000   0.000000   0.000000   0.000000   0.000000
    36  H    0.000000   0.000000   0.000000   0.000000   0.000000   0.000000
    37  H    0.000000   0.000000   0.000000   0.000000   0.000000   0.000000
              7          8          9         10         11         12
     1  C   -0.038578   0.340107  -0.072767  -0.003330   0.005173  -0.004969
     2  H   -0.001689  -0.044281  -0.003463   0.002888  -0.000063  -0.000010
     3  H    0.003423  -0.038144  -0.003420   0.000001  -0.000053   0.001966
     4  C    0.407757  -0.058143   0.005120  -0.000065  -0.000130  -0.000037
     5  H   -0.021624   0.005141  -0.000097  -0.000002   0.000002  -0.000002
     6  H   -0.024996  -0.006110  -0.000136   0.000001   0.000002   0.000001
     7  H    0.447959  -0.003525  -0.000123   0.000002   0.000001   0.000002
     8  C   -0.003525   5.245492   0.369451  -0.038625  -0.033433  -0.038197
     9  C   -0.000123   0.369451   5.095763   0.395075   0.392559   0.391333
    10  H    0.000002  -0.038625   0.395075   0.520388  -0.021198  -0.025941
    11  H    0.000001  -0.033433   0.392559  -0.021198   0.487987  -0.025829
    12  H    0.000002  -0.038197   0.391333  -0.025941  -0.025829   0.534260
    13  C    0.000153   0.348967  -0.062277   0.004966  -0.003412  -0.004196
    14  H    0.000155  -0.036688   0.004738  -0.000123  -0.000076  -0.000016
    15  H    0.000060  -0.037095  -0.004016  -0.000028   0.000020   0.001803
    16  H   -0.000052  -0.038026  -0.003978  -0.000076   0.002645  -0.000043
    17  C    0.003199   0.353441  -0.054811  -0.003167  -0.005561   0.005393
    18  O    0.000136  -0.066637  -0.001739   0.000580   0.004525   0.000342
    19  O   -0.022454  -0.062833   0.001574  -0.000002   0.000056  -0.000025
    20  C    0.000275   0.002941  -0.000161  -0.000009  -0.000008   0.000003
    21  H    0.000078  -0.000005  -0.000009  -0.000002   0.000000   0.000000
    22  H    0.000060   0.000401   0.000022   0.000018  -0.000002   0.000001
    23  C   -0.000456   0.000041   0.000001   0.000000   0.000000   0.000000
    24  H    0.000684  -0.000012   0.000000   0.000000   0.000000   0.000000
    25  H    0.000109   0.000003   0.000000   0.000000   0.000000   0.000000
    26  O    0.000001   0.000000   0.000000   0.000000   0.000000   0.000000
    27  C   -0.000002   0.000000   0.000000   0.000000   0.000000   0.000000
    28  H    0.000000   0.000000   0.000000   0.000000   0.000000   0.000000
    29  H    0.000000   0.000000   0.000000   0.000000   0.000000   0.000000
    30  C    0.000000   0.000000   0.000000   0.000000   0.000000   0.000000
    31  H    0.000000   0.000000   0.000000   0.000000   0.000000   0.000000
    32  H    0.000000   0.000000   0.000000   0.000000   0.000000   0.000000
    33  O    0.000000   0.000000   0.000000   0.000000   0.000000   0.000000
    34  C    0.000000   0.000000   0.000000   0.000000   0.000000   0.000000
    35  H    0.000000   0.000000   0.000000   0.000000   0.000000   0.000000
    36  H    0.000000   0.000000   0.000000   0.000000   0.000000   0.000000
    37  H    0.000000   0.000000   0.000000   0.000000   0.000000   0.000000
             13         14         15         16         17         18
     1  C   -0.066679  -0.004922  -0.004276   0.005374  -0.065886   0.001993
     2  H    0.005070  -0.000132  -0.000022  -0.000100  -0.002873   0.000038
     3  H   -0.004637   0.000122   0.002803  -0.000104   0.004898  -0.000050
     4  C   -0.008341  -0.002379  -0.000087   0.000095  -0.005162  -0.000168
     5  H    0.000173   0.000147  -0.000053   0.000002  -0.000083   0.000001
     6  H   -0.002897  -0.004394   0.000149   0.000232   0.000072  -0.000003
     7  H    0.000153   0.000155   0.000060  -0.000052   0.003199   0.000136
     8  C    0.348967  -0.036688  -0.037095  -0.038026   0.353441  -0.066637
     9  C   -0.062277   0.004738  -0.004016  -0.003978  -0.054811  -0.001739
    10  H    0.004966  -0.000123  -0.000028  -0.000076  -0.003167   0.000580
    11  H   -0.003412  -0.000076   0.000020   0.002645  -0.005561   0.004525
    12  H   -0.004196  -0.000016   0.001803  -0.000043   0.005393   0.000342
    13  C    5.140937   0.397097   0.394877   0.392837  -0.053433  -0.001166
    14  H    0.397097   0.514644  -0.024274  -0.024199  -0.004242  -0.000018
    15  H    0.394877  -0.024274   0.510688  -0.023038   0.005072  -0.000055
    16  H    0.392837  -0.024199  -0.023038   0.501931  -0.003949   0.002326
    17  C   -0.053433  -0.004242   0.005072  -0.003949   4.249838   0.520130
    18  O   -0.001166  -0.000018  -0.000055   0.002326   0.520130   8.190128
    19  O    0.001794   0.001013  -0.000063   0.000041   0.229339  -0.064870
    20  C   -0.000123  -0.000028   0.000003  -0.000008  -0.024743  -0.005733
    21  H   -0.000003  -0.000002   0.000000   0.000001  -0.007333   0.004997
    22  H   -0.000005   0.000002   0.000000   0.000000  -0.004056   0.001384
    23  C    0.000000   0.000000   0.000000   0.000000   0.003927   0.000618
    24  H    0.000000   0.000000   0.000000   0.000000  -0.000199  -0.000011
    25  H    0.000000   0.000000   0.000000   0.000000  -0.000094   0.000002
    26  O    0.000000   0.000000   0.000000   0.000000  -0.000022   0.000001
    27  C    0.000000   0.000000   0.000000   0.000000   0.000002   0.000000
    28  H    0.000000   0.000000   0.000000   0.000000   0.000000   0.000000
    29  H    0.000000   0.000000   0.000000   0.000000   0.000000   0.000000
    30  C    0.000000   0.000000   0.000000   0.000000   0.000000   0.000000
    31  H    0.000000   0.000000   0.000000   0.000000   0.000000   0.000000
    32  H    0.000000   0.000000   0.000000   0.000000   0.000000   0.000000
    33  O    0.000000   0.000000   0.000000   0.000000   0.000000   0.000000
    34  C    0.000000   0.000000   0.000000   0.000000   0.000000   0.000000
    35  H    0.000000   0.000000   0.000000   0.000000   0.000000   0.000000
    36  H    0.000000   0.000000   0.000000   0.000000   0.000000   0.000000
    37  H    0.000000   0.000000   0.000000   0.000000   0.000000   0.000000
             19         20         21         22         23         24
     1  C    0.011938  -0.000594   0.000039  -0.000121  -0.000073   0.000011
     2  H    0.001061  -0.000037   0.000005   0.000028  -0.000007   0.000009
     3  H   -0.000064   0.000010   0.000000  -0.000004   0.000000   0.000000
     4  C   -0.057327   0.002341  -0.000148  -0.000058   0.000114  -0.000189
     5  H    0.001064  -0.000046   0.000001   0.000006  -0.000005   0.000022
     6  H    0.001164  -0.000038   0.000004  -0.000004   0.000002   0.000002
     7  H   -0.022454   0.000275   0.000078   0.000060  -0.000456   0.000684
     8  C   -0.062833   0.002941  -0.000005   0.000401   0.000041  -0.000012
     9  C    0.001574  -0.000161  -0.000009   0.000022   0.000001   0.000000
    10  H   -0.000002  -0.000009  -0.000002   0.000018   0.000000   0.000000
    11  H    0.000056  -0.000008   0.000000  -0.000002   0.000000   0.000000
    12  H   -0.000025   0.000003   0.000000   0.000001   0.000000   0.000000
    13  C    0.001794  -0.000123  -0.000003  -0.000005   0.000000   0.000000
    14  H    0.001013  -0.000028  -0.000002   0.000002   0.000000   0.000000
    15  H   -0.000063   0.000003   0.000000   0.000000   0.000000   0.000000
    16  H    0.000041  -0.000008   0.000001   0.000000   0.000000   0.000000
    17  C    0.229339  -0.024743  -0.007333  -0.004056   0.003927  -0.000199
    18  O   -0.064870  -0.005733   0.004997   0.001384   0.000618  -0.000011
    19  O    8.602197   0.146438  -0.030062  -0.036923  -0.032112   0.002627
    20  C    0.146438   4.824497   0.401532   0.399798   0.374106  -0.038418
    21  H   -0.030062   0.401532   0.490908  -0.034409  -0.040285   0.004696
    22  H   -0.036923   0.399798  -0.034409   0.534105  -0.041607  -0.005854
    23  C   -0.032112   0.374106  -0.040285  -0.041607   4.797135   0.390939
    24  H    0.002627  -0.038418   0.004696  -0.005854   0.390939   0.572745
    25  H    0.003123  -0.039560  -0.005513   0.005033   0.392927  -0.045563
    26  O    0.000693  -0.036185   0.003286   0.003750   0.205535  -0.038978
    27  C   -0.000036   0.004093  -0.000198  -0.000202  -0.048777  -0.006186
    28  H    0.000001  -0.000069   0.000017  -0.000013  -0.006513   0.007286
    29  H    0.000001  -0.000059  -0.000014   0.000016  -0.006344  -0.001322
    30  C    0.000000  -0.000074   0.000001   0.000002   0.004363  -0.000091
    31  H    0.000000   0.000003   0.000001   0.000000  -0.000187   0.000016
    32  H    0.000000   0.000004   0.000000   0.000001  -0.000189  -0.000012
    33  O    0.000000   0.000000   0.000000   0.000000  -0.000037   0.000001
    34  C    0.000000   0.000000   0.000000   0.000000   0.000002   0.000000
    35  H    0.000000   0.000000   0.000000   0.000000   0.000000   0.000000
    36  H    0.000000   0.000000   0.000000   0.000000   0.000000   0.000000
    37  H    0.000000   0.000000   0.000000   0.000000   0.000000   0.000000
             25         26         27         28         29         30
     1  C   -0.000001   0.000000   0.000000   0.000000   0.000000   0.000000
     2  H    0.000000   0.000000   0.000000   0.000000   0.000000   0.000000
     3  H    0.000000   0.000000   0.000000   0.000000   0.000000   0.000000
     4  C   -0.000007   0.000000   0.000000   0.000000   0.000000   0.000000
     5  H    0.000001   0.000000   0.000000   0.000000   0.000000   0.000000
     6  H   -0.000002   0.000000   0.000000   0.000000   0.000000   0.000000
     7  H    0.000109   0.000001  -0.000002   0.000000   0.000000   0.000000
     8  C    0.000003   0.000000   0.000000   0.000000   0.000000   0.000000
     9  C    0.000000   0.000000   0.000000   0.000000   0.000000   0.000000
    10  H    0.000000   0.000000   0.000000   0.000000   0.000000   0.000000
    11  H    0.000000   0.000000   0.000000   0.000000   0.000000   0.000000
    12  H    0.000000   0.000000   0.000000   0.000000   0.000000   0.000000
    13  C    0.000000   0.000000   0.000000   0.000000   0.000000   0.000000
    14  H    0.000000   0.000000   0.000000   0.000000   0.000000   0.000000
    15  H    0.000000   0.000000   0.000000   0.000000   0.000000   0.000000
    16  H    0.000000   0.000000   0.000000   0.000000   0.000000   0.000000
    17  C   -0.000094  -0.000022   0.000002   0.000000   0.000000   0.000000
    18  O    0.000002   0.000001   0.000000   0.000000   0.000000   0.000000
    19  O    0.003123   0.000693  -0.000036   0.000001   0.000001   0.000000
    20  C   -0.039560  -0.036185   0.004093  -0.000069  -0.000059  -0.000074
    21  H   -0.005513   0.003286  -0.000198   0.000017  -0.000014   0.000001
    22  H    0.005033   0.003750  -0.000202  -0.000013   0.000016   0.000002
    23  C    0.392927   0.205535  -0.048777  -0.006513  -0.006344   0.004363
    24  H   -0.045563  -0.038978  -0.006186   0.007286  -0.001322  -0.000091
    25  H    0.564191  -0.038254  -0.006077  -0.001308   0.007228  -0.000087
    26  O   -0.038254   8.478284   0.193794  -0.038598  -0.038438  -0.036507
    27  C   -0.006077   0.193794   4.789239   0.393379   0.393435   0.391376
    28  H   -0.001308  -0.038598   0.393379   0.563855  -0.044206  -0.038771
    29  H    0.007228  -0.038438   0.393435  -0.044206   0.562137  -0.038691
    30  C   -0.000087  -0.036507   0.391376  -0.038771  -0.038691   4.784401
    31  H   -0.000012   0.003602  -0.039734   0.005252  -0.006150   0.392781
    32  H    0.000016   0.003693  -0.040029  -0.006181   0.005258   0.392523
    33  O    0.000001   0.000726  -0.037248   0.003632   0.003771   0.204553
    34  C    0.000000  -0.000042   0.004481  -0.000172  -0.000170  -0.054783
    35  H    0.000000   0.000000  -0.000083   0.000004   0.000004   0.005035
    36  H    0.000000   0.000001  -0.000139   0.000017  -0.000015  -0.007227
    37  H    0.000000   0.000001  -0.000153  -0.000013   0.000019  -0.007197
             31         32         33         34         35         36
     1  C    0.000000   0.000000   0.000000   0.000000   0.000000   0.000000
     2  H    0.000000   0.000000   0.000000   0.000000   0.000000   0.000000
     3  H    0.000000   0.000000   0.000000   0.000000   0.000000   0.000000
     4  C    0.000000   0.000000   0.000000   0.000000   0.000000   0.000000
     5  H    0.000000   0.000000   0.000000   0.000000   0.000000   0.000000
     6  H    0.000000   0.000000   0.000000   0.000000   0.000000   0.000000
     7  H    0.000000   0.000000   0.000000   0.000000   0.000000   0.000000
     8  C    0.000000   0.000000   0.000000   0.000000   0.000000   0.000000
     9  C    0.000000   0.000000   0.000000   0.000000   0.000000   0.000000
    10  H    0.000000   0.000000   0.000000   0.000000   0.000000   0.000000
    11  H    0.000000   0.000000   0.000000   0.000000   0.000000   0.000000
    12  H    0.000000   0.000000   0.000000   0.000000   0.000000   0.000000
    13  C    0.000000   0.000000   0.000000   0.000000   0.000000   0.000000
    14  H    0.000000   0.000000   0.000000   0.000000   0.000000   0.000000
    15  H    0.000000   0.000000   0.000000   0.000000   0.000000   0.000000
    16  H    0.000000   0.000000   0.000000   0.000000   0.000000   0.000000
    17  C    0.000000   0.000000   0.000000   0.000000   0.000000   0.000000
    18  O    0.000000   0.000000   0.000000   0.000000   0.000000   0.000000
    19  O    0.000000   0.000000   0.000000   0.000000   0.000000   0.000000
    20  C    0.000003   0.000004   0.000000   0.000000   0.000000   0.000000
    21  H    0.000001   0.000000   0.000000   0.000000   0.000000   0.000000
    22  H    0.000000   0.000001   0.000000   0.000000   0.000000   0.000000
    23  C   -0.000187  -0.000189  -0.000037   0.000002   0.000000   0.000000
    24  H    0.000016  -0.000012   0.000001   0.000000   0.000000   0.000000
    25  H   -0.000012   0.000016   0.000001   0.000000   0.000000   0.000000
    26  O    0.003602   0.003693   0.000726  -0.000042   0.000000   0.000001
    27  C   -0.039734  -0.040029  -0.037248   0.004481  -0.000083  -0.000139
    28  H    0.005252  -0.006181   0.003632  -0.000172   0.000004   0.000017
    29  H   -0.006150   0.005258   0.003771  -0.000170   0.000004  -0.000015
    30  C    0.392781   0.392523   0.204553  -0.054783   0.005035  -0.007227
    31  H    0.568846  -0.045288  -0.039362  -0.005706  -0.000099   0.007737
    32  H   -0.045288   0.569480  -0.039426  -0.005396  -0.000116  -0.001253
    33  O   -0.039362  -0.039426   8.440137   0.215179  -0.028503  -0.039787
    34  C   -0.005706  -0.005396   0.215179   4.819866   0.402218   0.393921
    35  H   -0.000099  -0.000116  -0.028503   0.402218   0.499088  -0.030062
    36  H    0.007737  -0.001253  -0.039787   0.393921  -0.030062   0.568991
    37  H   -0.001388   0.007605  -0.039687   0.393512  -0.030109  -0.043837
             37
     1  C    0.000000
     2  H    0.000000
     3  H    0.000000
     4  C    0.000000
     5  H    0.000000
     6  H    0.000000
     7  H    0.000000
     8  C    0.000000
     9  C    0.000000
    10  H    0.000000
    11  H    0.000000
    12  H    0.000000
    13  C    0.000000
    14  H    0.000000
    15  H    0.000000
    16  H    0.000000
    17  C    0.000000
    18  O    0.000000
    19  O    0.000000
    20  C    0.000000
    21  H    0.000000
    22  H    0.000000
    23  C    0.000000
    24  H    0.000000
    25  H    0.000000
    26  O    0.000001
    27  C   -0.000153
    28  H   -0.000013
    29  H    0.000019
    30  C   -0.007197
    31  H   -0.001388
    32  H    0.007605
    33  O   -0.039687
    34  C    0.393512
    35  H   -0.030109
    36  H   -0.043837
    37  H    0.570355
 Mulliken atomic charges:
              1
     1  C   -0.302126
     2  H    0.163854
     3  H    0.170590
     4  C   -0.535278
     5  H    0.153513
     6  H    0.153803
     7  H    0.249446
     8  C   -0.164230
     9  C   -0.448638
    10  H    0.168647
    11  H    0.196794
    12  H    0.164162
    13  C   -0.479700
    14  H    0.183575
    15  H    0.177533
    16  H    0.188091
    17  C    0.860305
    18  O   -0.586753
    19  O   -0.697354
    20  C   -0.010151
    21  H    0.212416
    22  H    0.178632
    23  C    0.006881
    24  H    0.157795
    25  H    0.163842
    26  O   -0.666345
    27  C    0.009063
    28  H    0.162401
    29  H    0.163539
    30  C    0.008393
    31  H    0.159689
    32  H    0.159312
    33  O   -0.643950
    34  C   -0.162911
    35  H    0.182621
    36  H    0.151652
    37  H    0.150890
 Sum of Mulliken atomic charges =   0.00000
 Mulliken charges with hydrogens summed into heavy atoms:
              1
     1  C    0.032319
     4  C    0.021483
     8  C   -0.164230
     9  C    0.080965
    13  C    0.069499
    17  C    0.860305
    18  O   -0.586753
    19  O   -0.697354
    20  C    0.380897
    23  C    0.328517
    26  O   -0.666345
    27  C    0.335002
    30  C    0.327393
    33  O   -0.643950
    34  C    0.322252
 Sum of Mulliken charges with hydrogens summed into heavy atoms =   0.00000
 DipInt: DoE/N= T F RetVal/Mat= T F Init=T NMatP=  1 IDeriv=0 Min/MaxMlt=  0  4
 Entering OneElI...
 OneElI was handed    33366455 working-precision words.
 Multipole integrals L=0 to 4 MinM= 0 MaxM= 0.
 Requested accuracy = 0.1000D-12
 PrsmSu:  NPrtUS=   1 ThrOK=F IAlg=1
 PRISM was handed    33038019 working-precision words and  3965 shell-pairs
 IPart=  0 NShTot=        3965 NBatch=          42 AvBLen=        94.4
 Electronic moments (au):
       -120.00000000        474.18178217        285.39682673       -716.26945556
      -3845.38578594      -1071.36767423      -9195.48663964      -1061.60729299
       5506.87365632       1871.41498909      31465.15217940       4092.53763342
    -127876.46273902       3311.53187255       8807.22465897     -48084.71654583
      77202.63275516      23039.64720804      -5904.35820358     -13416.09729541
    -292930.57634456     -18569.21371027   -1943616.81329843     -72579.04080874
     445102.32300003     -10483.73102448      21265.80873788    1155900.26320588
     314295.89315325     -26130.06880669    -708232.54844366     -69271.02344646
     115165.74610037      38826.39452745    -187019.86519087
 Electronic spatial extent (au):  <R**2>=          14112.2401
 DipInt: DoE/N= F T RetVal/Mat= T F Init=T NMatP=  1 IDeriv=0 Min/MaxMlt=  0  4
 Nuclear    moments (au):
        120.00000000       -474.36283333       -284.79306658        716.27234478
       3773.08283171        995.80544118       9139.57666329       1065.57824194
      -5511.43401937      -1870.31783252     -30599.30829474      -3568.17695834
     127021.57005299      -3059.99525230      -8667.51963997      47677.85457977
     -77049.51430980     -22936.75371992       5485.56891991      13461.20883019
     278924.25193373      14742.83016802    1920553.66640261      70925.07238965
    -435274.19356202       8760.84692804     -17999.60968384   -1149724.05294351
    -312612.46732472      23453.37109882     701486.67426735      63612.00877092
    -114469.89656155     -35902.55169963     187216.94918060
 Total      moments (au):
          0.00000000         -0.18105116          0.60376014          0.00288922
        -72.30295423        -75.56223305        -55.90997635          3.97094895
         -4.56036305          1.09715657        865.84388466        524.36067508
       -854.89268603        251.53662026        139.70501900       -406.86196606
        153.11844537        102.89348812       -418.78928367         45.11153478
     -14006.32441083      -3826.38354224     -23063.14689581      -1653.96841908
       9828.12943802      -1722.88409645       3266.19905404       6176.21026236
       1683.42582852      -2676.69770787      -6745.87417631      -5659.01467554
        695.84953882       2923.84282782        197.08398973
 Traceless Quadrup. (au):
         -4.37789969         -7.63717851         12.01507819          3.97094895
         -4.56036305          1.09715657
 Charge=              0.0000 electrons
 Dipole moment (field-independent basis, Debye):
    X=             -0.4602    Y=              1.5346    Z=              0.0073  Tot=              1.6021
 Quadrupole moment (field-independent basis, Debye-Ang):
   XX=            -97.2499   YY=           -101.6338   ZZ=            -75.2008
   XY=              5.3411   XZ=             -6.1338   YZ=              1.4757
 Traceless Quadrupole moment (field-independent basis, Debye-Ang):
   XX=             -5.8884   YY=            -10.2723   ZZ=             16.1607
   XY=              5.3411   XZ=             -6.1338   YZ=              1.4757
 Octapole moment (field-independent basis, Debye-Ang**2):
  XXX=            616.2743  YYY=            373.2197  ZZZ=           -608.4796  XYY=            179.0341
  XXY=             99.4366  XXZ=           -289.5887  XZZ=            108.9838  YZZ=             73.2356
  YYZ=           -298.0781  XYZ=             32.1087
 Hexadecapole moment (field-independent basis, Debye-Ang**3):
 XXXX=          -5275.4530 YYYY=          -1441.1994 ZZZZ=          -8686.6865 XXXY=           -622.9638
 XXXZ=           3701.7446 YYYX=           -648.9207 YYYZ=           1230.2071 ZZZX=           2326.2568
 ZZZY=            634.0588 XXYY=          -1008.1726 XXZZ=          -2540.8195 YYZZ=          -2131.4561
 XXYZ=            262.0903 YYXZ=           1101.2593 ZZXY=             74.2313
 N-N= 1.035929413177D+03 E-N=-3.779956122836D+03  KE= 7.277083744109D+02
 Entering OneElI...
 OneElI was handed    33220539 working-precision words.
 Calculate electrostatic properties
    NBasis =   269  MinDer = 0  MaxDer = 0
    NGrid  =    37  NMatD  =   1
 Requested accuracy = 0.1000D-12
 PrsmSu:  NPrtUS=   1 ThrOK=F IAlg=1
 PRISM was handed    32924413 working-precision words and  3470 shell-pairs
 IPart=  0 NShTot=      128390 NBatch=        3470 AvBLen=        37.0
 --------------------------------------------------------
       Center         ----      EFG at Nuclei      ----
                      3XX-RR        3YY-RR        3ZZ-RR
 --------------------------------------------------------
     1   Atom        0.017687     -0.054964      0.037278
     2   Atom        0.106528      0.067827     -0.174354
     3   Atom        0.109462      0.053583     -0.163045
     4   Atom       -0.099921      0.014481      0.085439
     5   Atom        0.121607     -0.299877      0.178270
     6   Atom        0.101884      0.071056     -0.172940
     7   Atom        0.089830      0.057625     -0.147454
     8   Atom        0.046118      0.040710     -0.086828
     9   Atom       -0.096003      0.067149      0.028854
    10   Atom        0.098511      0.076041     -0.174552
    11   Atom        0.115658     -0.290398      0.174740
    12   Atom        0.106418      0.058724     -0.165142
    13   Atom        0.043786      0.025501     -0.069288
    14   Atom       -0.335962      0.169777      0.166185
    15   Atom        0.112591      0.053614     -0.166205
    16   Atom        0.126290     -0.292090      0.165800
    17   Atom       -0.144323      0.031335      0.112988
    18   Atom        0.398694     -0.936212      0.537517
    19   Atom       -0.328390      1.494912     -1.166521
    20   Atom        0.178044      0.276547     -0.454591
    21   Atom        0.164650     -0.303874      0.139224
    22   Atom       -0.116154      0.046934      0.069220
    23   Atom        0.149119      0.193382     -0.342501
    24   Atom        0.164230     -0.310176      0.145947
    25   Atom       -0.119176      0.046913      0.072263
    26   Atom       -0.246422      1.638133     -1.391711
    27   Atom       -0.226308      0.174147      0.052161
    28   Atom        0.156245     -0.309059      0.152814
    29   Atom       -0.121631      0.045106      0.076525
    30   Atom       -0.211615      0.169533      0.042082
    31   Atom        0.156049     -0.308140      0.152091
    32   Atom       -0.121399      0.044711      0.076688
    33   Atom       -0.262388      1.616713     -1.354326
    34   Atom        0.194330      0.161476     -0.355807
    35   Atom       -0.200366      0.131140      0.069226
    36   Atom        0.171265     -0.318301      0.147036
    37   Atom       -0.122924      0.060187      0.062737
 --------------------------------------------------------
                        XY            XZ            YZ
 --------------------------------------------------------
     1   Atom        0.016631     -0.004452      0.002141
     2   Atom       -0.078105     -0.153422     -0.184697
     3   Atom       -0.080944      0.145348      0.194452
     4   Atom        0.025635     -0.036466     -0.070374
     5   Atom        0.147908      0.001145     -0.010590
     6   Atom       -0.075527     -0.152270     -0.192315
     7   Atom       -0.072557      0.138694      0.175621
     8   Atom       -0.068040      0.077609      0.080516
     9   Atom       -0.012405      0.013058     -0.002307
    10   Atom       -0.080932     -0.148321     -0.190594
    11   Atom        0.147436      0.001688     -0.015816
    12   Atom       -0.082259      0.138727      0.200923
    13   Atom       -0.019928     -0.027641     -0.043840
    14   Atom        0.018443      0.002030     -0.004557
    15   Atom       -0.088959      0.141252      0.196698
    16   Atom        0.145511      0.001090     -0.013788
    17   Atom       -0.205188     -0.154629     -0.472593
    18   Atom        0.235549     -1.346522     -0.348986
    19   Atom        0.520487      0.881637     -0.024237
    20   Atom        0.017594      0.007472      0.107852
    21   Atom        0.060330     -0.009457      0.075053
    22   Atom       -0.196691     -0.147750     -0.099605
    23   Atom        0.033160     -0.001578      0.104464
    24   Atom        0.068103     -0.004070      0.071926
    25   Atom       -0.193557     -0.150639     -0.102242
    26   Atom        0.790910      0.891816      0.234364
    27   Atom        0.157229      0.201217     -0.052626
    28   Atom        0.065925     -0.000567      0.074017
    29   Atom       -0.189725     -0.149809     -0.109079
    30   Atom        0.148987      0.188176     -0.046436
    31   Atom        0.067348     -0.001051      0.073578
    32   Atom       -0.190979     -0.150503     -0.108927
    33   Atom        0.790861      0.936626      0.294884
    34   Atom       -0.000343     -0.016127      0.120115
    35   Atom        0.130083      0.180756     -0.057969
    36   Atom        0.057825     -0.003546      0.063135
    37   Atom       -0.189374     -0.162765     -0.100544
 --------------------------------------------------------


 ---------------------------------------------------------------------------------
              Nuclear Quadrupole in Principal Axis System
 ---------------------------------------------------------------------------------

       Atom             a.u.   MegaHertz   Gauss  10(-4) cm-1        Axes

              Baa    -0.0587    -7.875    -2.810    -2.627 -0.2144  0.9762 -0.0317
     1 C(13)  Bbb     0.0204     2.740     0.978     0.914  0.9504  0.2160  0.2236
              Bcc     0.0383     5.135     1.832     1.713 -0.2251 -0.0178  0.9742
 
              Baa    -0.3404  -181.621   -64.807   -60.582  0.3594  0.4409  0.8225
     2 H(1)   Bbb     0.1655    88.303    31.509    29.455 -0.4395  0.8575 -0.2676
              Bcc     0.1749    93.318    33.298    31.128  0.8232  0.2653 -0.5019
 
              Baa    -0.3390  -180.876   -64.541   -60.334 -0.3477 -0.4727  0.8097
     3 H(1)   Bbb     0.1655    88.319    31.515    29.460 -0.5066  0.8214  0.2620
              Bcc     0.1735    92.556    33.026    30.873  0.7890  0.3190  0.5251
 
              Baa    -0.1084   -14.541    -5.189    -4.850  0.9823 -0.1251  0.1394
     4 C(13)  Bbb    -0.0288    -3.860    -1.377    -1.287  0.0323  0.8463  0.5318
              Bcc     0.1371    18.401     6.566     6.138 -0.1845 -0.5179  0.8353
 
              Baa    -0.3468  -185.041   -66.027   -61.723 -0.3011  0.9534  0.0199
     5 H(1)   Bbb     0.1679    89.591    31.968    29.884  0.9365  0.2917  0.1947
              Bcc     0.1789    95.449    34.059    31.839 -0.1799 -0.0773  0.9807
 
              Baa    -0.3435  -183.254   -65.389   -61.127  0.3564  0.4459  0.8211
     6 H(1)   Bbb     0.1633    87.132    31.091    29.064  0.8359 -0.5447 -0.0670
              Bcc     0.1802    96.122    34.299    32.063  0.4174  0.7102 -0.5668
 
              Baa    -0.3095  -165.158   -58.933   -55.091 -0.3647 -0.4594  0.8099
     7 H(1)   Bbb     0.1480    78.953    28.173    26.336  0.8169 -0.5752  0.0416
              Bcc     0.1616    86.205    30.760    28.755  0.4468  0.6768  0.5851
 
              Baa    -0.1718   -23.057    -8.227    -7.691 -0.4196 -0.4360  0.7962
     8 C(13)  Bbb     0.0603     8.093     2.888     2.700  0.5503  0.5754  0.6051
              Bcc     0.1115    14.963     5.339     4.991  0.7219 -0.6920  0.0016
 
              Baa    -0.0982   -13.183    -4.704    -4.397  0.9922  0.0730 -0.1006
     9 C(13)  Bbb     0.0299     4.009     1.430     1.337  0.0937  0.0925  0.9913
              Bcc     0.0684     9.174     3.274     3.060 -0.0817  0.9930 -0.0850
 
              Baa    -0.3421  -182.547   -65.137   -60.891  0.3580  0.4437  0.8215
    10 H(1)   Bbb     0.1633    87.108    31.082    29.056  0.9326 -0.1263 -0.3382
              Bcc     0.1789    95.438    34.055    31.835 -0.0463  0.8872 -0.4590
 
              Baa    -0.3388  -180.744   -64.494   -60.290 -0.3086  0.9507  0.0303
    11 H(1)   Bbb     0.1627    86.801    30.973    28.954  0.9225  0.2914  0.2531
              Bcc     0.1761    93.943    33.521    31.336 -0.2318 -0.1061  0.9670
 
              Baa    -0.3413  -182.104   -64.979   -60.743 -0.3389 -0.4770  0.8109
    12 H(1)   Bbb     0.1645    87.762    31.316    29.274  0.9397 -0.1294  0.3166
              Bcc     0.1768    94.342    33.664    31.469 -0.0460  0.8693  0.4921
 
              Baa    -0.0944   -12.663    -4.519    -4.224  0.2332  0.3680  0.9001
    13 C(13)  Bbb     0.0378     5.072     1.810     1.692  0.4939  0.7526 -0.4356
              Bcc     0.0566     7.591     2.709     2.532  0.8377 -0.5461  0.0063
 
              Baa    -0.3366  -179.617   -64.092   -59.914  0.9993 -0.0364 -0.0044
    14 H(1)   Bbb     0.1634    87.162    31.102    29.074  0.0232  0.5339  0.8453
              Bcc     0.1733    92.454    32.990    30.839  0.0285  0.8448 -0.5343
 
              Baa    -0.3428  -182.881   -65.256   -61.003 -0.3441 -0.4782  0.8080
    15 H(1)   Bbb     0.1659    88.530    31.590    29.531  0.5001  0.6350  0.5888
              Bcc     0.1768    94.351    33.667    31.472  0.7947 -0.6067 -0.0206
 
              Baa    -0.3381  -180.385   -64.366   -60.170 -0.2990  0.9539  0.0267
    16 H(1)   Bbb     0.1648    87.940    31.379    29.334  0.3875  0.0958  0.9169
              Bcc     0.1733    92.444    32.986    30.836  0.8720  0.2845 -0.3983
 
              Baa    -0.5598   -75.121   -26.805   -25.058  0.5246  0.6352  0.5668
    17 C(13)  Bbb     0.0123     1.652     0.589     0.551  0.8504 -0.3600 -0.3837
              Bcc     0.5475    73.469    26.216    24.507  0.0397 -0.6833  0.7291
 
              Baa    -1.0293    74.476    26.575    24.843  0.2136  0.8984  0.3837
    18 O(17)  Bbb    -0.8485    61.395    21.907    20.479  0.7027 -0.4142  0.5784
              Bcc     1.8777  -135.872   -48.482   -45.322 -0.6786 -0.1461  0.7198
 
              Baa    -1.7519   126.764    45.233    42.284 -0.5489  0.0942  0.8306
    19 O(17)  Bbb     0.1022    -7.395    -2.639    -2.467  0.7849 -0.2837  0.5508
              Bcc     1.6497  -119.369   -42.594   -39.817  0.2876  0.9543  0.0818
 
              Baa    -0.4702   -63.097   -22.515   -21.047 -0.0075 -0.1428  0.9897
    20 C(13)  Bbb     0.1752    23.505     8.387     7.840  0.9877 -0.1555 -0.0149
              Bcc     0.2950    39.592    14.127    13.207  0.1561  0.9775  0.1422
 
              Baa    -0.3239  -172.804   -61.661   -57.641 -0.1240  0.9791 -0.1612
    21 H(1)   Bbb     0.1516    80.876    28.859    26.977 -0.0227  0.1596  0.9869
              Bcc     0.1723    91.928    32.802    30.664  0.9920  0.1261  0.0024
 
              Baa    -0.3276  -174.768   -62.362   -58.296  0.7582  0.5072  0.4097
    22 H(1)   Bbb     0.1492    79.619    28.410    26.558 -0.3538 -0.2077  0.9120
              Bcc     0.1783    95.149    33.952    31.738 -0.5476  0.8364 -0.0220
 
              Baa    -0.3623   -48.612   -17.346   -16.215  0.0151 -0.1856  0.9825
    23 C(13)  Bbb     0.1357    18.215     6.500     6.076  0.9226 -0.3763 -0.0852
              Bcc     0.2265    30.397    10.846    10.139  0.3855  0.9077  0.1656
 
              Baa    -0.3306  -176.380   -62.937   -58.834 -0.1360  0.9794 -0.1490
    24 H(1)   Bbb     0.1549    82.650    29.492    27.569 -0.3160  0.0996  0.9435
              Bcc     0.1757    93.730    33.445    31.265  0.9390  0.1754  0.2959
 
              Baa    -0.3293  -175.690   -62.690   -58.604  0.7593  0.5029  0.4129
    25 H(1)   Bbb     0.1545    82.455    29.422    27.504 -0.4043 -0.1325  0.9050
              Bcc     0.1747    93.235    33.268    31.100 -0.5098  0.8541 -0.1027
 
              Baa    -1.8883   136.633    48.754    45.576 -0.4965  0.0538  0.8664
    26 O(17)  Bbb    -0.1246     9.017     3.218     3.008  0.7791 -0.4124  0.4721
              Bcc     2.0129  -145.650   -51.971   -48.584  0.3826  0.9094  0.1628
 
              Baa    -0.3802   -51.021   -18.206   -17.019  0.8557 -0.2838 -0.4328
    27 C(13)  Bbb     0.1490    19.997     7.135     6.670  0.3459 -0.3084  0.8861
              Bcc     0.2312    31.024    11.070    10.349  0.3849  0.9079  0.1657
 
              Baa    -0.3294  -175.749   -62.711   -58.623 -0.1332  0.9796 -0.1505
    28 H(1)   Bbb     0.1552    82.783    29.539    27.614 -0.6892  0.0176  0.7244
              Bcc     0.1742    92.965    33.172    31.010  0.7123  0.2002  0.6728
 
              Baa    -0.3298  -175.979   -62.794   -58.700  0.7577  0.5040  0.4146
    29 H(1)   Bbb     0.1554    82.913    29.585    27.657 -0.5886  0.2533  0.7677
              Bcc     0.1744    93.066    33.208    31.043 -0.2819  0.8257 -0.4886
 
              Baa    -0.3565   -47.845   -17.072   -15.959  0.8549 -0.2806 -0.4363
    30 C(13)  Bbb     0.1328    17.822     6.359     5.945  0.3512 -0.3058  0.8849
              Bcc     0.2237    30.023    10.713    10.015  0.3818  0.9098  0.1629
 
              Baa    -0.3288  -175.431   -62.598   -58.517 -0.1363  0.9792 -0.1501
    31 H(1)   Bbb     0.1551    82.758    29.530    27.605 -0.6683  0.0209  0.7436
              Bcc     0.1737    92.673    33.068    30.912  0.7313  0.2017  0.6516
 
              Baa    -0.3311  -176.657   -63.036   -58.926  0.7572  0.5049  0.4143
    32 H(1)   Bbb     0.1566    83.548    29.812    27.869 -0.5787  0.2244  0.7841
              Bcc     0.1745    93.109    33.223    31.058 -0.3029  0.8335 -0.4621
 
              Baa    -1.8985   137.373    49.018    45.823 -0.5120  0.0432  0.8579
    33 O(17)  Bbb    -0.1208     8.739     3.118     2.915  0.7657 -0.4297  0.4786
              Bcc     2.0193  -146.112   -52.136   -48.738  0.3894  0.9019  0.1869
 
              Baa    -0.3828   -51.363   -18.328   -17.133  0.0272 -0.2154  0.9761
    34 C(13)  Bbb     0.1863    24.998     8.920     8.339  0.4104  0.8928  0.1856
              Bcc     0.1965    26.365     9.408     8.794  0.9115 -0.3956 -0.1127
 
              Baa    -0.3345  -178.487   -63.689   -59.537  0.8565 -0.2922 -0.4254
    35 H(1)   Bbb     0.1576    84.104    30.010    28.054  0.3278 -0.3287  0.8857
              Bcc     0.1769    94.383    33.678    31.483  0.3987  0.8981  0.1858
 
[...]
 8499 Fit       0.002554
 8500 Fit       0.002198
 8501 Fit       0.001901
 8502 Fit       0.001739
 8503 Fit       0.001787
 8504 Fit       0.002110
 8505 Fit       0.000334
 8506 Fit       0.001843
 8507 Fit       0.002719
 8508 Fit       0.003150
 8509 Fit       0.003266
 8510 Fit       0.003157
 8511 Fit       0.002897
 8512 Fit       0.001337
 8513 Fit       0.000824
 8514 Fit       0.000375
 8515 Fit       0.000072
 8516 Fit      -0.000003
 8517 Fit       0.000224
 8518 Fit      -0.000039
 8519 Fit       0.001449
 8520 Fit       0.002227
 8521 Fit       0.002531
 8522 Fit       0.002506
 8523 Fit       0.002249
 8524 Fit       0.001836
 8525 Fit      -0.000106
 8526 Fit      -0.000817
 8527 Fit      -0.001454
 8528 Fit      -0.001931
 8529 Fit      -0.002156
 8530 Fit      -0.002045
 8531 Fit       0.000307
 8532 Fit       0.001426
 8533 Fit       0.001904
 8534 Fit       0.001950
 8535 Fit       0.001692
 8536 Fit       0.001217
 8537 Fit       0.000595
 8538 Fit      -0.001919
 8539 Fit      -0.002908
 8540 Fit      -0.003810
 8541 Fit      -0.004519
 8542 Fit      -0.004925
 8543 Fit      -0.004921
 8544 Fit       0.000802
 8545 Fit       0.001492
 8546 Fit       0.001606
 8547 Fit       0.001325
 8548 Fit       0.000758
 8549 Fit      -0.000015
 8550 Fit      -0.000929
 8551 Fit      -0.004336
 8552 Fit      -0.005788
 8553 Fit      -0.007117
 8554 Fit      -0.008180
 8555 Fit      -0.008813
 8556 Fit       0.001751
 8557 Fit       0.001442
 8558 Fit       0.000736
 8559 Fit      -0.000269
 8560 Fit      -0.001496
 8561 Fit      -0.002877
 8562 Fit      -0.001453
 8563 Fit      -0.003425
 8564 Fit      -0.005582
 8565 Fit       0.005182
 8566 Fit       0.005888
 8567 Fit       0.003405
 8568 Fit       0.004020
 8569 Fit       0.004773
 8570 Fit       0.005608
 8571 Fit       0.006528
 8572 Fit       0.001548
 8573 Fit       0.002194
 8574 Fit       0.002959
 8575 Fit       0.003755
 8576 Fit       0.004531
 8577 Fit       0.005260
 8578 Fit       0.005944
 8579 Fit      -0.000428
 8580 Fit       0.000425
 8581 Fit       0.001365
 8582 Fit       0.002298
 8583 Fit       0.003160
 8584 Fit       0.003913
 8585 Fit       0.004533
 8586 Fit       0.005000
 8587 Fit       0.005287
 8588 Fit      -0.002841
 8589 Fit      -0.001668
 8590 Fit      -0.000464
 8591 Fit       0.000683
 8592 Fit       0.001714
 8593 Fit       0.002595
 8594 Fit       0.003302
 8595 Fit       0.003814
 8596 Fit       0.004106
 8597 Fit       0.004132
 8598 Fit       0.003804
 8599 Fit      -0.005758
 8600 Fit      -0.004040
 8601 Fit      -0.002418
 8602 Fit      -0.000953
 8603 Fit       0.000320
 8604 Fit       0.001383
 8605 Fit       0.002225
 8606 Fit       0.002835
 8607 Fit       0.003198
 8608 Fit       0.003280
 8609 Fit       0.003020
 8610 Fit       0.002306
 8611 Fit       0.000933
 8612 Fit      -0.008944
 8613 Fit      -0.006340
 8614 Fit      -0.004104
 8615 Fit      -0.002220
 8616 Fit      -0.000667
 8617 Fit       0.000574
 8618 Fit       0.001516
 8619 Fit       0.002164
 8620 Fit       0.002509
 8621 Fit       0.002523
 8622 Fit       0.002140
 8623 Fit       0.001239
 8624 Fit      -0.000404
 8625 Fit      -0.008439
 8626 Fit      -0.005461
 8627 Fit      -0.003126
 8628 Fit      -0.001308
 8629 Fit       0.000071
 8630 Fit       0.001061
 8631 Fit       0.001686
 8632 Fit       0.001948
 8633 Fit       0.001817
 8634 Fit       0.001221
 8635 Fit       0.000018
 8636 Fit      -0.006715
 8637 Fit      -0.003929
 8638 Fit      -0.001866
 8639 Fit      -0.000364
 8640 Fit       0.000674
 8641 Fit       0.001300
 8642 Fit       0.001538
 8643 Fit       0.001382
 8644 Fit       0.000799
 8645 Fit      -0.006296
 8646 Fit      -0.003356
 8647 Fit      -0.001305
 8648 Fit       0.000096
 8649 Fit       0.000991
 8650 Fit       0.001483
 8651 Fit      -0.002282
 8652 Fit      -0.000332
 8653 Fit      -0.006904
 8654 Fit      -0.005284
 8655 Fit      -0.003297
 8656 Fit      -0.010193
 8657 Fit      -0.010905
 8658 Fit      -0.011222
 8659 Fit      -0.011096
 8660 Fit      -0.010501
 8661 Fit      -0.009440
 8662 Fit      -0.007941
 8663 Fit      -0.006067
 8664 Fit      -0.003900
 8665 Fit      -0.011550
 8666 Fit      -0.012284
 8667 Fit      -0.012810
 8668 Fit      -0.013037
 8669 Fit      -0.012896
 8670 Fit      -0.012337
 8671 Fit      -0.011337
 8672 Fit      -0.009907
 8673 Fit      -0.008093
 8674 Fit      -0.005980
 8675 Fit      -0.010066
 8676 Fit      -0.010784
 8677 Fit      -0.011423
 8678 Fit      -0.012039
 8679 Fit      -0.012658
 8680 Fit      -0.013264
 8681 Fit      -0.013805
 8682 Fit      -0.014208
 8683 Fit      -0.014389
 8684 Fit      -0.014270
 8685 Fit      -0.013779
 8686 Fit      -0.012866
 8687 Fit      -0.011509
 8688 Fit      -0.009726
 8689 Fit      -0.007586
 8690 Fit      -0.003210
 8691 Fit      -0.005354
 8692 Fit      -0.007267
 8693 Fit      -0.008913
 8694 Fit      -0.010286
 8695 Fit      -0.011408
 8696 Fit      -0.012319
 8697 Fit      -0.013070
 8698 Fit      -0.013705
 8699 Fit      -0.014255
 8700 Fit      -0.014719
 8701 Fit      -0.015070
 8702 Fit      -0.015255
 8703 Fit      -0.015202
 8704 Fit      -0.014834
 8705 Fit      -0.014077
 8706 Fit      -0.012865
 8707 Fit      -0.011163
 8708 Fit      -0.004705
 8709 Fit      -0.006816
 8710 Fit      -0.008703
 8711 Fit      -0.010330
 8712 Fit      -0.011691
 8713 Fit      -0.012802
 8714 Fit      -0.013692
 8715 Fit      -0.014396
 8716 Fit      -0.014938
 8717 Fit      -0.015326
 8718 Fit      -0.015544
 8719 Fit      -0.015553
 8720 Fit      -0.015294
 8721 Fit      -0.014693
 8722 Fit      -0.013667
 8723 Fit      -0.012135
 8724 Fit      -0.004808
 8725 Fit      -0.007017
 8726 Fit      -0.008996
 8727 Fit      -0.010698
 8728 Fit      -0.012104
 8729 Fit      -0.013223
 8730 Fit      -0.014074
 8731 Fit      -0.014675
 8732 Fit      -0.015034
 8733 Fit      -0.015135
 8734 Fit      -0.014938
 8735 Fit      -0.014378
 8736 Fit      -0.013365
 8737 Fit      -0.011784
 8738 Fit      -0.009102
 8739 Fit      -0.010760
 8740 Fit      -0.012053
 8741 Fit      -0.012981
 8742 Fit      -0.013547
 8743 Fit      -0.013741
 8744 Fit      -0.013526
 8745 Fit      -0.012833
 8746 Fit      -0.011552
 8747 Fit       0.008434
 8748 Fit       0.008455
 8749 Fit       0.008576
 8750 Fit       0.008574
 8751 Fit       0.008451
 8752 Fit       0.008223
 8753 Fit       0.008195
 8754 Fit       0.008617
 8755 Fit       0.008635
 8756 Fit       0.008626
 8757 Fit       0.008561
 8758 Fit       0.008466
 8759 Fit       0.008289
 8760 Fit       0.007983
 8761 Fit       0.007746
 8762 Fit       0.008547
 8763 Fit       0.008581
 8764 Fit       0.008628
 8765 Fit       0.008610
 8766 Fit       0.008532
 8767 Fit       0.008467
 8768 Fit       0.008447
 8769 Fit       0.008393
 8770 Fit       0.008170
 8771 Fit       0.007757
 8772 Fit       0.007335
 8773 Fit       0.007165
 8774 Fit       0.008377
 8775 Fit       0.008466
 8776 Fit       0.008579
 8777 Fit       0.008607
 8778 Fit       0.008517
 8779 Fit       0.008373
 8780 Fit       0.008282
 8781 Fit       0.008310
 8782 Fit       0.006617
 8783 Fit       0.006437
 8784 Fit       0.008132
 8785 Fit       0.008280
 8786 Fit       0.008204
 8787 Fit       0.008006
 8788 Fit       0.007947
 8789 Fit       0.008063
 8790 Fit       0.005639
 8791 Fit       0.005563
 8792 Fit       0.007783
 8793 Fit       0.007909
 8794 Fit       0.007763
 8795 Fit       0.007511
 8796 Fit       0.007469
 8797 Fit       0.004645
 8798 Fit       0.004479
 8799 Fit       0.007425
 8800 Fit       0.007486
 8801 Fit       0.006854
 8802 Fit       0.006828
 8803 Fit       0.003466
 8804 Fit       0.003227
 8805 Fit       0.007081
 8806 Fit       0.007098
 8807 Fit       0.006175
 8808 Fit       0.005982
 8809 Fit       0.002190
 8810 Fit       0.001803
 8811 Fit       0.001844
 8812 Fit       0.006780
 8813 Fit       0.006752
 8814 Fit       0.006947
 8815 Fit       0.005056
 8816 Fit       0.004981
 8817 Fit       0.000150
 8818 Fit       0.000068
 8819 Fit       0.000392
 8820 Fit       0.006518
 8821 Fit       0.006474
 8822 Fit       0.006657
 8823 Fit       0.003908
 8824 Fit       0.003753
 8825 Fit      -0.001747
 8826 Fit      -0.002010
 8827 Fit      -0.001865
 8828 Fit      -0.001320
 8829 Fit       0.002620
 8830 Fit       0.002324
 8831 Fit      -0.004331
 8832 Fit      -0.004546
 8833 Fit      -0.004310
 8834 Fit      -0.003622
 8835 Fit      -0.002508
 8836 Fit       0.001147
 8837 Fit       0.000682
 8838 Fit       0.000442
 8839 Fit      -0.006911
 8840 Fit      -0.007527
 8841 Fit      -0.007678
 8842 Fit      -0.007312
 8843 Fit      -0.006413
 8844 Fit      -0.005004
 8845 Fit      -0.003162
 8846 Fit       0.000304
 8847 Fit      -0.000552
 8848 Fit      -0.001213
 8849 Fit      -0.001697
 8850 Fit      -0.001326
 8851 Fit      -0.002429
 8852 Fit      -0.003371
 8853 Fit      -0.004172
 8854 Fit      -0.004869
 8855 Fit      -0.002282
 8856 Fit      -0.003804
 8857 Fit      -0.005192
 8858 Fit      -0.006456
 8859 Fit      -0.007626
 8860 Fit      -0.008745
 8861 Fit      -0.009877
 8862 Fit      -0.002926
 8863 Fit      -0.004942
 8864 Fit      -0.006857
 8865 Fit       0.008145
 8866 Fit       0.007777
 8867 Fit       0.008310
 8868 Fit       0.007812
 8869 Fit       0.007460
 8870 Fit       0.007188
 8871 Fit       0.007071
 8872 Fit       0.007786
 8873 Fit       0.007440
 8874 Fit       0.007171
 8875 Fit       0.006908
 8876 Fit       0.006634
 8877 Fit       0.006395
 8878 Fit       0.006303
 8879 Fit       0.007413
 8880 Fit       0.007109
 8881 Fit       0.006894
 8882 Fit       0.006689
 8883 Fit       0.006448
 8884 Fit       0.006157
 8885 Fit       0.005838
 8886 Fit       0.005550
 8887 Fit       0.005391
 8888 Fit       0.007128
 8889 Fit       0.006752
 8890 Fit       0.006531
 8891 Fit       0.006374
 8892 Fit       0.006213
 8893 Fit       0.006003
 8894 Fit       0.005725
 8895 Fit       0.005380
 8896 Fit       0.004996
 8897 Fit       0.004627
 8898 Fit       0.004355
 8899 Fit       0.004297
 8900 Fit       0.006254
 8901 Fit       0.005980
 8902 Fit       0.005826
 8903 Fit       0.005715
 8904 Fit       0.005590
 8905 Fit       0.005412
 8906 Fit       0.005159
 8907 Fit       0.004827
 8908 Fit       0.004424
 8909 Fit       0.003977
 8910 Fit       0.003532
 8911 Fit       0.003158
 8912 Fit       0.002950
 8913 Fit       0.005305
 8914 Fit       0.005081
 8915 Fit       0.004965
 8916 Fit       0.004879
 8917 Fit       0.004769
 8918 Fit       0.004597
 8919 Fit       0.004341
 8920 Fit       0.003991
 8921 Fit       0.003550
 8922 Fit       0.003037
 8923 Fit       0.002486
 8924 Fit       0.001951
 8925 Fit       0.001511
 8926 Fit       0.004175
 8927 Fit       0.003994
 8928 Fit       0.003903
 8929 Fit       0.003831
 8930 Fit       0.003726
 8931 Fit       0.003554
 8932 Fit       0.003291
 8933 Fit       0.002924
 8934 Fit       0.002453
 8935 Fit       0.001887
 8936 Fit       0.001250
 8937 Fit       0.000580
 8938 Fit      -0.000062
 8939 Fit       0.002737
 8940 Fit       0.002628
 8941 Fit       0.002557
 8942 Fit       0.002468
 8943 Fit       0.002319
 8944 Fit       0.002078
 8945 Fit       0.001728
 8946 Fit       0.001257
 8947 Fit       0.000665
 8948 Fit      -0.000040
 8949 Fit      -0.000834
 8950 Fit      -0.001682
 8951 Fit      -0.002523
 8952 Fit       0.001044
 8953 Fit       0.000956
 8954 Fit       0.000866
 8955 Fit       0.000717
 8956 Fit       0.000469
 8957 Fit       0.000092
 8958 Fit      -0.000433
 8959 Fit      -0.001116
 8960 Fit      -0.001960
 8961 Fit      -0.002955
 8962 Fit      -0.004080
 8963 Fit      -0.005293
 8964 Fit      -0.001122
 8965 Fit      -0.001241
 8966 Fit      -0.001450
 8967 Fit      -0.001796
 8968 Fit      -0.002319
 8969 Fit      -0.003048
 8970 Fit      -0.004004
 8971 Fit      -0.005204
 8972 Fit      -0.006659
 8973 Fit      -0.008372
 8974 Fit      -0.003846
 8975 Fit      -0.003994
 8976 Fit      -0.004282
 8977 Fit      -0.004770
 8978 Fit      -0.005511
 8979 Fit      -0.006552
 8980 Fit      -0.007943
 8981 Fit      -0.009743
 8982 Fit      -0.007735
 8983 Fit      -0.008169
 8984 Fit      -0.008968
 8985 Fit      -0.010226
 8986 Fit       0.007856
 8987 Fit       0.007515
 8988 Fit       0.007908
 8989 Fit       0.008352
 8990 Fit       0.008323
 8991 Fit       0.007719
 8992 Fit       0.007365
 8993 Fit       0.007249
 8994 Fit       0.007527
 8995 Fit       0.007878
 8996 Fit       0.008355
 8997 Fit       0.007499
 8998 Fit       0.006978
 8999 Fit       0.006857
 9000 Fit       0.007003
 9001 Fit       0.007023
 9002 Fit       0.007242
 9003 Fit       0.007471
 9004 Fit       0.007774
 9005 Fit       0.008215
 9006 Fit       0.006550
 9007 Fit       0.006277
 9008 Fit       0.006308
 9009 Fit       0.006513
 9010 Fit       0.006775
 9011 Fit       0.006809
 9012 Fit       0.007003
 9013 Fit       0.007173
 9014 Fit       0.007372
 9015 Fit       0.007668
 9016 Fit       0.008121
 9017 Fit       0.005694
 9018 Fit       0.005540
 9019 Fit       0.005660
 9020 Fit       0.005932
 9021 Fit       0.006256
 9022 Fit       0.006560
 9023 Fit       0.006596
 9024 Fit       0.006780
 9025 Fit       0.006918
 9026 Fit       0.007058
 9027 Fit       0.007260
 9028 Fit       0.007592
 9029 Fit       0.004779
 9030 Fit       0.004669
 9031 Fit       0.004847
 9032 Fit       0.005191
 9033 Fit       0.005599
 9034 Fit       0.005996
 9035 Fit       0.006336
 9036 Fit       0.006388
 9037 Fit       0.006571
 9038 Fit       0.006689
 9039 Fit       0.006785
 9040 Fit       0.006916
 9041 Fit       0.007141
 9042 Fit       0.003609
 9043 Fit       0.003860
 9044 Fit       0.004285
 9045 Fit       0.004786
 9046 Fit       0.005290
 9047 Fit       0.005743
 9048 Fit       0.006114
 9049 Fit       0.006213
 9050 Fit       0.006414
 9051 Fit       0.006523
 9052 Fit       0.006589
 9053 Fit       0.006680
 9054 Fit       0.006862
 9055 Fit       0.002473
 9056 Fit       0.002969
 9057 Fit       0.003596
 9058 Fit       0.004260
 9059 Fit       0.004892
 9060 Fit       0.005446
 9061 Fit       0.005891
 9062 Fit       0.006134
 9063 Fit       0.006372
 9064 Fit       0.006475
 9065 Fit       0.006501
 9066 Fit       0.006538
 9067 Fit       0.006672
 9068 Fit       0.001253
 9069 Fit       0.002024
 9070 Fit       0.002875
 9071 Fit       0.003723
 9072 Fit       0.004507
 9073 Fit       0.005188
 9074 Fit       0.005737
 9075 Fit       0.006658
 9076 Fit      -0.000297
 9077 Fit       0.000814
 9078 Fit       0.001966
 9079 Fit       0.003077
 9080 Fit       0.004097
 9081 Fit       0.004994
 9082 Fit       0.005738
 9083 Fit      -0.001160
 9084 Fit       0.000510
 9085 Fit       0.002094
 9086 Fit       0.003555
 9087 Fit       0.008462
 9088 Fit       0.008437
 9089 Fit       0.008179
 9090 Fit       0.008011
 9091 Fit       0.007934
 9092 Fit       0.007906
 9093 Fit       0.007950
 9094 Fit       0.007902
 9095 Fit       0.007704
 9096 Fit       0.007620
 9097 Fit       0.007572
 9098 Fit       0.007518
 9099 Fit       0.007453
 9100 Fit       0.007411
 9101 Fit       0.007469
 9102 Fit       0.007387
 9103 Fit       0.007312
 9104 Fit       0.007291
 9105 Fit       0.007266
 9106 Fit       0.007205
 9107 Fit       0.007099
 9108 Fit       0.006965
 9109 Fit       0.006846
 9110 Fit       0.006819
 9111 Fit       0.007095
 9112 Fit       0.007012
 9113 Fit       0.007006
 9114 Fit       0.007015
 9115 Fit       0.006996
 9116 Fit       0.006927
 9117 Fit       0.006796
 9118 Fit       0.006612
 9119 Fit       0.006397
 9120 Fit       0.006194
 9121 Fit       0.006072
 9122 Fit       0.006829
 9123 Fit       0.006743
 9124 Fit       0.006744
 9125 Fit       0.006765
 9126 Fit       0.006761
 9127 Fit       0.006702
 9128 Fit       0.006572
 9129 Fit       0.006368
 9130 Fit       0.006100
 9131 Fit       0.005789
 9132 Fit       0.005477
 9133 Fit       0.005227
 9134 Fit       0.006667
 9135 Fit       0.006559
 9136 Fit       0.006546
 9137 Fit       0.006557
 9138 Fit       0.006546
 9139 Fit       0.006485
 9140 Fit       0.006354
 9141 Fit       0.006145
 9142 Fit       0.005857
 9143 Fit       0.005498
 9144 Fit       0.005087
 9145 Fit       0.004660
 9146 Fit       0.004271
 9147 Fit       0.006527
 9148 Fit       0.006481
 9149 Fit       0.006445
 9150 Fit       0.006383
 9151 Fit       0.006272
 9152 Fit       0.006095
 9153 Fit       0.005842
 9154 Fit       0.005505
 9155 Fit       0.005085
 9156 Fit       0.004591
 9157 Fit       0.004043
 9158 Fit       0.003476
 9159 Fit       0.002942
 9160 Fit       0.006470
 9161 Fit       0.006258
 9162 Fit       0.006004
 9163 Fit       0.005690
 9164 Fit       0.005299
 9165 Fit       0.004818
 9166 Fit       0.004242
 9167 Fit       0.003575
 9168 Fit       0.002832
 9169 Fit       0.002042
 9170 Fit       0.006077
 9171 Fit       0.005571
 9172 Fit       0.005028
 9173 Fit       0.004409
 9174 Fit       0.003686
 9175 Fit       0.002843
 9176 Fit       0.001875
 9177 Fit       0.000786
 9178 Fit       0.004898
 9179 Fit       0.004056
 9180 Fit       0.003134
 9181 Fit       0.002076
 9182 Fit       0.000838
 9183 Fit      -0.000620
 9184 Fit       0.003033
 9185 Fit       0.001645
 9186 Fit       0.000023
 9187 Fit      -0.000602
 -----------------------------------------------------------------
 Leave Link  602 at Tue May 15 17:29:00 2018, MaxMem=   33554432 cpu:       1.8

 Test job not archived.
 1\1\GINC-N0629\FOpt\RHF\6-31G(d)\C11H22O4\JSMITH07\15-May-2018\0\\#HF/
 6-31G* SCF=tight Test Pop=MK iop(6/33=2) NoSymm iop(6/42=6) opt\\remar
 k line goes here\\0,1\C,0.3798654484,0.1274105547,-0.6996398012\H,1.31
 12149535,0.3272273625,-0.1834053072\H,0.6409655321,-0.3222933439,-1.65
 46671683\C,-0.3384314615,1.4537458151,-0.9559757871\H,0.3238788268,2.1
 348350589,-1.4810448061\H,-1.2231549426,1.3264149789,-1.5710781533\H,-
 0.6308828292,1.933070153,-0.0292322142\C,-0.4046309446,-0.9286225528,0
 .1047176321\C,0.4414731585,-2.2163353338,0.1924769032\H,1.4104092266,-
 2.0178973147,0.6390252036\H,-0.0581881747,-2.9765431034,0.7824558754\H
 ,0.6056266323,-2.6165906149,-0.8026741159\C,-1.7545724959,-1.255937975
 3,-0.554144359\H,-2.4414327263,-0.4182954016,-0.5153874086\H,-1.596187
 0268,-1.5096498831,-1.5978101324\H,-2.2333194187,-2.09723352,-0.070506
 77\C,-0.5968254636,-0.4452403253,1.5401872294\O,0.0465595626,0.4064884
 841,2.0654054966\O,-1.5406937058,-1.121909092,2.1842078884\C,-1.764097
 5162,-0.7999438223,3.5486355281\H,-0.8626546783,-0.9659070977,4.120627
 0752\H,-2.0419734515,0.2397088064,3.6429258897\C,-2.881096641,-1.70331
 84145,4.0256204322\H,-3.7757343452,-1.536102372,3.4296904628\H,-2.5933
 572092,-2.7459177186,3.9080963003\O,-3.1096427136,-1.397269768,5.36523
 43928\C,-4.1211229812,-2.144475396,5.9733149884\H,-5.0709893987,-1.995
 7907153,5.465306339\H,-3.8888269858,-3.2063820963,5.944142535\C,-4.232
 1578868,-1.6840878219,7.411486388\H,-3.2805287824,-1.8310592729,7.9183
 140629\H,-4.4627565028,-0.6210296735,7.4396745368\O,-5.2415812105,-2.4
 31360933,8.015632039\C,-5.4637059202,-2.1180765851,9.3544631379\H,-6.2
 60647873,-2.7558444326,9.7109519308\H,-4.5743871433,-2.294088815,9.956
 2425061\H,-5.7624129117,-1.0786978182,9.4747312496\\Version=EM64L-G09R
 evA.02\HF=-728.8013741\RMSD=5.935e-09\RMSF=2.270e-06\Dipole=-0.4738846
 ,-0.5618812,-0.011365\Quadrupole=-2.9267501,-4.7327546,7.6595047,-2.04
 61882,-5.8902678,-1.5186151\PG=C01 [X(C11H22O4)]\\@


 ADAM SMITH SAID, "THE REAL PRICE OF ANYTHING IS THE TOIL AND TROUBLE
 OF ACQUIRING IT."  BUT IN ALL UNDERTAKINGS WITH NATURE WE SHOULD FIRST
 READ CAREFULLY THE SMALL PRINT IN THE CONTRACT. THIS MIGHT DISCLOSE
 THAT THE REAL PRICE IS TO BE PAID BY THOSE WHO INHERIT THE DEPLETION
 AND DESPOILATION THAT FOLLOWS.
                               -- E. R. HARRISON IN "COSMOLOGY" (1980)
 Job cpu time:  0 days  0 hours 51 minutes  8.5 seconds.
 File lengths (MBytes):  RWF=    178 Int=      0 D2E=      0 Chk=      8 Scr=      4
 Normal termination of Gaussian 09 at Tue May 15 17:29:00 2018.
