 Entering Gaussian System, Link 0=g09
 Input=PEG.com
 Output=PEG.log
 Initial command:
 /gscratch/pfaendtner/codes/G09/g09/l1.exe /gscratch/pfaendtner/josh/gaussian/Gau-1374.inp -scrdir=/gscratch/pfaendtner/josh/gaussian/
 Entering Link 1 = /gscratch/pfaendtner/codes/G09/g09/l1.exe PID=      1384.
  
 Copyright (c) 1988,1990,1992,1993,1995,1998,2003,2009, Gaussian, Inc.
                  All Rights Reserved.
  
 This is part of the Gaussian(R) 09 program.  It is based on
 the Gaussian(R) 03 system (copyright 2003, Gaussian, Inc.),
 the Gaussian(R) 98 system (copyright 1998, Gaussian, Inc.),
 the Gaussian(R) 94 system (copyright 1995, Gaussian, Inc.),
 the Gaussian 92(TM) system (copyright 1992, Gaussian, Inc.),
 the Gaussian 90(TM) system (copyright 1990, Gaussian, Inc.),
 the Gaussian 88(TM) system (copyright 1988, Gaussian, Inc.),
 the Gaussian 86(TM) system (copyright 1986, Carnegie Mellon
 University), and the Gaussian 82(TM) system (copyright 1983,
 Carnegie Mellon University). Gaussian is a federally registered
 trademark of Gaussian, Inc.
  
 This software contains proprietary and confidential information,
 including trade secrets, belonging to Gaussian, Inc.
  
 This software is provided under written license and may be
 used, copied, transmitted, or stored only in accord with that
 written license.
  
 The following legend is applicable only to US Government
 contracts under FAR:
  
                    RESTRICTED RIGHTS LEGEND
  
 Use, reproduction and disclosure by the US Government is
 subject to restrictions as set forth in subparagraphs (a)
 and (c) of the Commercial Computer Software - Restricted
 Rights clause in FAR 52.227-19.
  
 Gaussian, Inc.
 340 Quinnipiac St., Bldg. 40, Wallingford CT 06492
  
  
 ---------------------------------------------------------------
 Warning -- This program may not be used in any manner that
 competes with the business of Gaussian, Inc. or will provide
 assistance to any competitor of Gaussian, Inc.  The licensee
 of this program is prohibited from giving any competitor of
 Gaussian, Inc. access to this program.  By using this program,
 the user acknowledges that Gaussian, Inc. is engaged in the
 business of creating and licensing software in the field of
 computational chemistry and represents and warrants to the
 licensee that it is not a competitor of Gaussian, Inc. and that
 it will not use this program in any manner prohibited above.
 ---------------------------------------------------------------
  

 Cite this work as:
 Gaussian 09, Revision A.02,
 M. J. Frisch, G. W. Trucks, H. B. Schlegel, G. E. Scuseria, 
 M. A. Robb, J. R. Cheeseman, G. Scalmani, V. Barone, B. Mennucci, 
 G. A. Petersson, H. Nakatsuji, M. Caricato, X. Li, H. P. Hratchian, 
 A. F. Izmaylov, J. Bloino, G. Zheng, J. L. Sonnenberg, M. Hada, 
 M. Ehara, K. Toyota, R. Fukuda, J. Hasegawa, M. Ishida, T. Nakajima, 
 Y. Honda, O. Kitao, H. Nakai, T. Vreven, J. A. Montgomery, Jr., 
 J. E. Peralta, F. Ogliaro, M. Bearpark, J. J. Heyd, E. Brothers, 
 K. N. Kudin, V. N. Staroverov, R. Kobayashi, J. Normand, 
 K. Raghavachari, A. Rendell, J. C. Burant, S. S. Iyengar, J. Tomasi, 
 M. Cossi, N. Rega, J. M. Millam, M. Klene, J. E. Knox, J. B. Cross, 
 V. Bakken, C. Adamo, J. Jaramillo, R. Gomperts, R. E. Stratmann, 
 O. Yazyev, A. J. Austin, R. Cammi, C. Pomelli, J. W. Ochterski, 
 R. L. Martin, K. Morokuma, V. G. Zakrzewski, G. A. Voth, 
 P. Salvador, J. J. Dannenberg, S. Dapprich, A. D. Daniels, 
 O. Farkas, J. B. Foresman, J. V. Ortiz, J. Cioslowski, 
 and D. J. Fox, Gaussian, Inc., Wallingford CT, 2009.
 
 ******************************************
 Gaussian 09:  EM64L-G09RevA.02 11-Jun-2009
                 1-May-2017 
 ******************************************
 %chk=molecule
 -------------------------------------------------------------------
 #HF/6-31G* SCF=tight Test Pop=MK iop(6/33=2) NoSymm iop(6/42=6) opt
 -------------------------------------------------------------------
 1/18=20,19=15,38=1/1,3;
 2/9=110,12=2,15=1,17=6,18=5,40=1/2;
 3/5=1,6=6,7=1,11=9,16=1,25=1,30=1,71=1/1,2,3;
 4//1;
 5/5=2,32=2,38=5/2;
 6/7=2,8=2,9=2,10=2,15=8,20=1,28=1,33=2,42=6/1,2;
 7/30=1/1,2,3,16;
 1/18=20,19=15/3(2);
 2/9=110,15=1/2;
 99//99;
 2/9=110,15=1/2;
 3/5=1,6=6,7=1,11=9,16=1,25=1,30=1,71=1/1,2,3;
 4/5=5,16=3/1;
 5/5=2,32=2,38=5/2;
 7/30=1/1,2,3,16;
 1/18=20,19=15/3(-5);
 2/9=110,15=1/2;
 6/7=2,8=2,9=2,10=2,15=8,19=2,20=1,28=1,33=2,42=6/1,2;
 99/9=1/99;
 ---------------------
 remark line goes here
 ---------------------
 Symbolic Z-matrix:
 Charge =  0 Multiplicity = 1
 C                    -3.87188   1.00907   0. 
 H                    -3.51523   0.00026   0. 
 H                    -3.51521   1.51347  -0.87365 
 H                    -4.94188   1.00908   0. 
 O                    -3.39521   1.68317   1.16759 
 C                    -3.87152   3.03152   1.16821 
 H                    -4.94151   3.0318    1.16641 
 H                    -3.51325   3.53675   0.29569 
 C                    -3.36011   3.75601   2.42724 
 H                    -2.29011   3.75564   2.4291 
 H                    -3.71847   3.25085   3.29976 
 O                    -3.8363    5.1044    2.42779 
 C                    -3.36154   5.77782   3.59655 
 H                    -2.29154   5.77776   3.59833 
 H                    -3.71969   5.27295   4.46933 
 C                    -3.87479   7.22978   3.59651 
 H                    -3.51628   7.73476   2.72395 
 H                    -4.94479   7.22994   3.59435 
 O                    -3.40039   7.90297   4.76556 
 C                    -3.87638   9.25142   4.76611 
 H                    -4.94638   9.25196   4.76402 
 H                    -3.51776   9.75661   3.89372 
 C                    -3.36514   9.97574   6.02532 
 H                    -2.29515   9.97521   6.02741 
 H                    -3.72377   9.47055   6.89772 
 O                    -3.84114   11.32419   6.02588 
 H                    -3.52266   11.77612   6.81069 
 

 GradGradGradGradGradGradGradGradGradGradGradGradGradGradGradGradGradGrad
 Berny optimization.
 Initialization pass.
                           ----------------------------
                           !    Initial Parameters    !
                           ! (Angstroms and Degrees)  !
 --------------------------                            --------------------------
 ! Name  Definition              Value          Derivative Info.                !
 --------------------------------------------------------------------------------
 ! R1    R(1,2)                  1.07           estimate D2E/DX2                !
 ! R2    R(1,3)                  1.07           estimate D2E/DX2                !
 ! R3    R(1,4)                  1.07           estimate D2E/DX2                !
 ! R4    R(1,5)                  1.43           estimate D2E/DX2                !
 ! R5    R(5,6)                  1.43           estimate D2E/DX2                !
 ! R6    R(6,7)                  1.07           estimate D2E/DX2                !
 ! R7    R(6,8)                  1.07           estimate D2E/DX2                !
 ! R8    R(6,9)                  1.54           estimate D2E/DX2                !
 ! R9    R(9,10)                 1.07           estimate D2E/DX2                !
 ! R10   R(9,11)                 1.07           estimate D2E/DX2                !
 ! R11   R(9,12)                 1.43           estimate D2E/DX2                !
 ! R12   R(12,13)                1.43           estimate D2E/DX2                !
 ! R13   R(13,14)                1.07           estimate D2E/DX2                !
 ! R14   R(13,15)                1.07           estimate D2E/DX2                !
 ! R15   R(13,16)                1.54           estimate D2E/DX2                !
 ! R16   R(16,17)                1.07           estimate D2E/DX2                !
 ! R17   R(16,18)                1.07           estimate D2E/DX2                !
 ! R18   R(16,19)                1.43           estimate D2E/DX2                !
 ! R19   R(19,20)                1.43           estimate D2E/DX2                !
 ! R20   R(20,21)                1.07           estimate D2E/DX2                !
 ! R21   R(20,22)                1.07           estimate D2E/DX2                !
 ! R22   R(20,23)                1.54           estimate D2E/DX2                !
 ! R23   R(23,24)                1.07           estimate D2E/DX2                !
 ! R24   R(23,25)                1.07           estimate D2E/DX2                !
 ! R25   R(23,26)                1.43           estimate D2E/DX2                !
 ! R26   R(26,27)                0.96           estimate D2E/DX2                !
 ! A1    A(2,1,3)              109.4712         estimate D2E/DX2                !
 ! A2    A(2,1,4)              109.4712         estimate D2E/DX2                !
 ! A3    A(2,1,5)              109.4712         estimate D2E/DX2                !
 ! A4    A(3,1,4)              109.4712         estimate D2E/DX2                !
 ! A5    A(3,1,5)              109.4713         estimate D2E/DX2                !
 ! A6    A(4,1,5)              109.4712         estimate D2E/DX2                !
 ! A7    A(1,5,6)              109.5            estimate D2E/DX2                !
 ! A8    A(5,6,7)              109.4712         estimate D2E/DX2                !
 ! A9    A(5,6,8)              109.4712         estimate D2E/DX2                !
 ! A10   A(5,6,9)              109.4712         estimate D2E/DX2                !
 ! A11   A(7,6,8)              109.4712         estimate D2E/DX2                !
 ! A12   A(7,6,9)              109.4713         estimate D2E/DX2                !
 ! A13   A(8,6,9)              109.4712         estimate D2E/DX2                !
 ! A14   A(6,9,10)             109.4712         estimate D2E/DX2                !
 ! A15   A(6,9,11)             109.4712         estimate D2E/DX2                !
 ! A16   A(6,9,12)             109.4712         estimate D2E/DX2                !
 ! A17   A(10,9,11)            109.4712         estimate D2E/DX2                !
 ! A18   A(10,9,12)            109.4713         estimate D2E/DX2                !
 ! A19   A(11,9,12)            109.4712         estimate D2E/DX2                !
 ! A20   A(9,12,13)            109.5            estimate D2E/DX2                !
 ! A21   A(12,13,14)           109.4712         estimate D2E/DX2                !
 ! A22   A(12,13,15)           109.4712         estimate D2E/DX2                !
 ! A23   A(12,13,16)           109.4712         estimate D2E/DX2                !
 ! A24   A(14,13,15)           109.4712         estimate D2E/DX2                !
 ! A25   A(14,13,16)           109.4713         estimate D2E/DX2                !
 ! A26   A(15,13,16)           109.4712         estimate D2E/DX2                !
 ! A27   A(13,16,17)           109.4704         estimate D2E/DX2                !
 ! A28   A(13,16,18)           109.4765         estimate D2E/DX2                !
 ! A29   A(13,16,19)           109.4668         estimate D2E/DX2                !
 ! A30   A(17,16,18)           109.4713         estimate D2E/DX2                !
 ! A31   A(17,16,19)           109.4712         estimate D2E/DX2                !
 ! A32   A(18,16,19)           109.4712         estimate D2E/DX2                !
 ! A33   A(16,19,20)           109.5            estimate D2E/DX2                !
 ! A34   A(19,20,21)           109.4712         estimate D2E/DX2                !
 ! A35   A(19,20,22)           109.4712         estimate D2E/DX2                !
 ! A36   A(19,20,23)           109.4712         estimate D2E/DX2                !
 ! A37   A(21,20,22)           109.4712         estimate D2E/DX2                !
 ! A38   A(21,20,23)           109.4713         estimate D2E/DX2                !
 ! A39   A(22,20,23)           109.4712         estimate D2E/DX2                !
 ! A40   A(20,23,24)           109.4712         estimate D2E/DX2                !
 ! A41   A(20,23,25)           109.4712         estimate D2E/DX2                !
 ! A42   A(20,23,26)           109.4712         estimate D2E/DX2                !
 ! A43   A(24,23,25)           109.4712         estimate D2E/DX2                !
 ! A44   A(24,23,26)           109.4713         estimate D2E/DX2                !
 ! A45   A(25,23,26)           109.4712         estimate D2E/DX2                !
 ! A46   A(23,26,27)           109.5            estimate D2E/DX2                !
 ! D1    D(2,1,5,6)            179.9999         estimate D2E/DX2                !
 ! D2    D(3,1,5,6)             59.9999         estimate D2E/DX2                !
 ! D3    D(4,1,5,6)            -60.0001         estimate D2E/DX2                !
 ! D4    D(1,5,6,7)             59.8889         estimate D2E/DX2                !
 ! D5    D(1,5,6,8)            -60.1111         estimate D2E/DX2                !
 ! D6    D(1,5,6,9)            179.889          estimate D2E/DX2                !
 ! D7    D(5,6,9,10)            59.9939         estimate D2E/DX2                !
 ! D8    D(5,6,9,11)           -60.0061         estimate D2E/DX2                !
 ! D9    D(5,6,9,12)           179.9939         estimate D2E/DX2                !
 ! D10   D(7,6,9,10)           179.9939         estimate D2E/DX2                !
 ! D11   D(7,6,9,11)            59.9939         estimate D2E/DX2                !
 ! D12   D(7,6,9,12)           -60.0061         estimate D2E/DX2                !
 ! D13   D(8,6,9,10)           -60.0061         estimate D2E/DX2                !
 ! D14   D(8,6,9,11)           179.9939         estimate D2E/DX2                !
 ! D15   D(8,6,9,12)            59.9939         estimate D2E/DX2                !
 ! D16   D(6,9,12,13)         -179.9885         estimate D2E/DX2                !
 ! D17   D(10,9,12,13)         -59.9885         estimate D2E/DX2                !
 ! D18   D(11,9,12,13)          60.0115         estimate D2E/DX2                !
 ! D19   D(9,12,13,14)          60.0032         estimate D2E/DX2                !
 ! D20   D(9,12,13,15)         -59.9968         estimate D2E/DX2                !
 ! D21   D(9,12,13,16)        -179.9968         estimate D2E/DX2                !
 ! D22   D(12,13,16,17)        -60.0245         estimate D2E/DX2                !
 ! D23   D(12,13,16,18)         59.9782         estimate D2E/DX2                !
 ! D24   D(12,13,16,19)        179.9787         estimate D2E/DX2                !
 ! D25   D(14,13,16,17)         59.9754         estimate D2E/DX2                !
 ! D26   D(14,13,16,18)        179.9782         estimate D2E/DX2                !
 ! D27   D(14,13,16,19)        -60.0213         estimate D2E/DX2                !
 ! D28   D(15,13,16,17)        179.9755         estimate D2E/DX2                !
 ! D29   D(15,13,16,18)        -60.0218         estimate D2E/DX2                !
 ! D30   D(15,13,16,19)         59.9787         estimate D2E/DX2                !
 ! D31   D(13,16,19,20)        179.9893         estimate D2E/DX2                !
 ! D32   D(17,16,19,20)         59.993          estimate D2E/DX2                !
 ! D33   D(18,16,19,20)        -60.007          estimate D2E/DX2                !
 ! D34   D(16,19,20,21)         59.9988         estimate D2E/DX2                !
 ! D35   D(16,19,20,22)        -60.0012         estimate D2E/DX2                !
 ! D36   D(16,19,20,23)        179.9988         estimate D2E/DX2                !
 ! D37   D(19,20,23,24)         60.0001         estimate D2E/DX2                !
 ! D38   D(19,20,23,25)        -59.9999         estimate D2E/DX2                !
 ! D39   D(19,20,23,26)       -179.9999         estimate D2E/DX2                !
 ! D40   D(21,20,23,24)       -179.9999         estimate D2E/DX2                !
 ! D41   D(21,20,23,25)         60.0001         estimate D2E/DX2                !
 ! D42   D(21,20,23,26)        -59.9999         estimate D2E/DX2                !
 ! D43   D(22,20,23,24)        -59.9999         estimate D2E/DX2                !
 ! D44   D(22,20,23,25)       -179.9999         estimate D2E/DX2                !
 ! D45   D(22,20,23,26)         60.0001         estimate D2E/DX2                !
 ! D46   D(20,23,26,27)       -179.9989         estimate D2E/DX2                !
 ! D47   D(24,23,26,27)        -59.9989         estimate D2E/DX2                !
 ! D48   D(25,23,26,27)         60.0011         estimate D2E/DX2                !
 --------------------------------------------------------------------------------
 Trust Radius=3.00D-01 FncErr=1.00D-07 GrdErr=1.00D-07
 Number of steps in this run= 130 maximum allowed number of steps= 162.
 GradGradGradGradGradGradGradGradGradGradGradGradGradGradGradGradGradGrad

                          Input orientation:                          
 ---------------------------------------------------------------------
 Center     Atomic      Atomic             Coordinates (Angstroms)
 Number     Number       Type             X           Y           Z
 ---------------------------------------------------------------------
      1          6           0       -3.871882    1.009070    0.000000
      2          1           0       -3.515227    0.000260    0.000000
      3          1           0       -3.515209    1.513468   -0.873652
      4          1           0       -4.941882    1.009083    0.000000
      5          8           0       -3.395207    1.683173    1.167590
      6          6           0       -3.871516    3.031516    1.168211
      7          1           0       -4.941515    3.031800    1.166410
      8          1           0       -3.513246    3.536745    0.295695
      9          6           0       -3.360108    3.756014    2.427244
     10          1           0       -2.290110    3.755636    2.429098
     11          1           0       -3.718466    3.250846    3.299761
     12          8           0       -3.836300    5.104399    2.427794
     13          6           0       -3.361538    5.777824    3.596554
     14          1           0       -2.291540    5.777764    3.598333
     15          1           0       -3.719685    5.272951    4.469327
     16          6           0       -3.874791    7.229779    3.596515
     17          1           0       -3.516284    7.734764    2.723954
     18          1           0       -4.944789    7.229938    3.594352
     19          8           0       -3.400387    7.902967    4.765556
     20          6           0       -3.876382    9.251422    4.766114
     21          1           0       -4.946379    9.251956    4.764024
     22          1           0       -3.517758    9.756610    3.893718
     23          6           0       -3.365144    9.975740    6.025320
     24          1           0       -2.295147    9.975207    6.027408
     25          1           0       -3.723766    9.470551    6.897715
     26          8           0       -3.841141   11.324193    6.025879
     27          1           0       -3.522661   11.776124    6.810690
 ---------------------------------------------------------------------
                    Distance matrix (angstroms):
                    1          2          3          4          5
     1  C    0.000000
     2  H    1.070000   0.000000
     3  H    1.070000   1.747302   0.000000
     4  H    1.070000   1.747303   1.747303   0.000000
     5  O    1.430000   2.051796   2.051796   2.051796   0.000000
     6  C    2.335595   3.268053   2.569168   2.569170   1.430000
     7  H    2.568280   3.547540   2.915738   2.334930   2.051796
     8  H    2.570058   3.548826   2.336883   2.918478   2.051796
     9  C    3.701233   4.474513   3.993617   3.992387   2.425826
    10  H    3.993262   4.637270   4.175684   4.525037   2.666036
    11  H    3.992182   4.636382   4.525170   4.172610   2.666130
    12  O    4.761004   5.661228   4.888499   4.887545   3.672528
    13  C    5.994720   6.807280   6.179893   6.178477   4.761005
    14  H    6.179475   6.915559   6.299224   6.535489   4.887972
    15  H    6.178894   6.915053   6.536279   6.296763   4.888074
    16  C    7.185551   8.082707   7.265528   7.264341   6.074086
    17  H    7.265076   8.200150   7.186604   7.395068   6.249694
    18  H    7.264275   8.199466   7.394915   7.184595   6.249558
    19  O    8.393965   9.229111   8.522884   8.521289   7.185488
    20  C    9.521146  10.412985   9.581927   9.580567   8.394004
    21  H    9.581004  10.504189   9.680693   9.520551   8.522145
    22  H    9.581539  10.504637   9.522458   9.680309   8.522158
    23  C   10.814917  11.654922  10.919174  10.917486   9.610677
    24  H   10.918212  11.718268  10.987001  11.123229   9.673975
    25  H   10.917741  11.717866  11.124424  10.984476   9.673962
    26  O   11.946293  12.831559  11.998336  11.996847  10.805143
    27  H   12.745074  13.603548  12.820735  12.819081  11.564103
                    6          7          8          9         10
     6  C    0.000000
     7  H    1.070000   0.000000
     8  H    1.070000   1.747303   0.000000
     9  C    1.540000   2.148263   2.148263   0.000000
    10  H    2.148263   3.024610   2.468884   1.070000   0.000000
    11  H    2.148263   2.468808   3.024610   1.070000   1.747303
    12  O    2.425826   2.666130   2.666036   1.430000   2.051796
    13  C    3.701234   3.992815   3.992633   2.335595   2.569077
    14  H    3.992955   4.525144   4.173984   2.569194   2.335832
    15  H    3.993051   4.174313   4.525068   2.569143   2.916928
    16  C    4.849957   4.966521   4.966349   3.701234   3.992962
    17  H    4.966595   5.155103   4.849722   3.992853   4.174195
    18  H    4.966369   4.849667   5.154622   3.992681   4.525032
    19  O    6.074035   6.249576   6.249504   4.760940   4.887956
    20  C    7.185552   7.264714   7.264574   5.994694   6.179123
    21  H    7.264921   7.185623   7.394827   6.179172   6.535838
    22  H    7.265014   7.395158   7.185576   6.179203   6.297930
    23  C    8.489415   8.620455   8.620394   7.185483   7.264861
    24  H    8.620416   8.879384   8.705750   7.264549   7.185466
    25  H    8.620338   8.705646   8.879248   7.264523   7.394874
    26  O    9.610742   9.674143   9.674031   8.393980   8.522065
    27  H   10.412850  10.504010  10.503933   9.141290   9.222026
                   11         12         13         14         15
    11  H    0.000000
    12  O    2.051796   0.000000
    13  C    2.569261   1.430000   0.000000
    14  H    2.917289   2.051796   1.070000   0.000000
    15  H    2.335978   2.051796   1.070000   1.747303   0.000000
    16  C    3.993044   2.425826   1.540000   2.148263   2.148263
    17  H    4.525256   2.666260   2.148252   2.468681   3.024603
    18  H    4.174185   2.665994   2.148329   3.024658   2.469060
    19  O    4.887940   3.672484   2.425760   2.666166   2.665837
    20  C    6.179161   4.761003   3.701191   3.992710   3.992601
    21  H    6.298028   4.887993   3.993031   4.525154   4.174219
    22  H    6.535903   4.888095   3.992924   4.173976   4.524963
    23  C    7.264826   6.074055   4.849888   4.966477   4.966189
    24  H    7.394790   6.249572   4.966313   4.849634   5.154428
    25  H    7.185404   6.249492   4.966398   5.154986   4.849426
    26  O    8.522071   7.185547   6.074031   6.249570   6.249411
    27  H    9.222002   7.988746   6.807072   6.914855   6.914626
                   16         17         18         19         20
    16  C    0.000000
    17  H    1.070000   0.000000
    18  H    1.070000   1.747303   0.000000
    19  O    1.430000   2.051796   2.051796   0.000000
    20  C    2.335595   2.569113   2.569225   1.430000   0.000000
    21  H    2.569159   2.917007   2.335956   2.051796   1.070000
    22  H    2.569178   2.335854   2.917209   2.051796   1.070000
    23  C    3.701234   3.992974   3.993033   2.425826   1.540000
    24  H    3.992730   4.174156   4.525137   2.666083   2.148263
    25  H    3.992717   4.525074   4.174141   2.666082   2.148263
    26  O    4.761005   4.887970   4.888076   3.672528   2.425826
    27  H    5.578904   5.747526   5.747616   4.381651   3.267955
                   21         22         23         24         25
    21  H    0.000000
    22  H    1.747303   0.000000
    23  C    2.148263   2.148263   0.000000
    24  H    3.024610   2.468845   1.070000   0.000000
    25  H    2.468847   3.024610   1.070000   1.747303   0.000000
    26  O    2.666083   2.666084   1.430000   2.051796   2.051796
    27  H    3.547850   3.547842   1.970533   2.315950   2.315963
                   26         27
    26  O    0.000000
    27  H    0.960000   0.000000
 Symmetry turned off by external request.
 Stoichiometry    C7H16O4
 Framework group  C1[X(C7H16O4)]
 Deg. of freedom    75
 Full point group                 C1      NOp   1
 Rotational constants (GHZ):      9.6663322      0.2068053      0.2042359
 Standard basis: 6-31G(d) (6D, 7F)
 Integral buffers will be    131072 words long.
 Raffenetti 1 integral format.
 Two-electron integral symmetry is turned off.
   197 basis functions,   372 primitive gaussians,   197 cartesian basis functions
    45 alpha electrons       45 beta electrons
       nuclear repulsion energy       614.5548987105 Hartrees.
 NAtoms=   27 NActive=   27 NUniq=   27 SFac= 7.50D-01 NAtFMM=   80 NAOKFM=F Big=F
 One-electron integrals computed using PRISM.
 NBasis=   197 RedAO= T  NBF=   197
 NBsUse=   197 1.00D-06 NBFU=   197
 Harris functional with IExCor=  205 diagonalized for initial guess.
 ExpMin= 1.61D-01 ExpMax= 5.48D+03 ExpMxC= 8.25D+02 IAcc=1 IRadAn=         1 AccDes= 0.00D+00
 HarFok:  IExCor=  205 AccDes= 0.00D+00 IRadAn=         1 IDoV= 1
 ScaDFX=  1.000000  1.000000  1.000000  1.000000
 FoFCou: FMM=F IPFlag=           0 FMFlag=      100000 FMFlg1=           0
         NFxFlg=           0 DoJE=T BraDBF=F KetDBF=T FulRan=T
         Omega=  0.000000  0.000000  1.000000  0.000000  0.000000 ICntrl=     500 IOpCl=  0
         NMat0=    1 NMatS0=    1 NMatT0=    0 NMatD0=    1 NMtDS0=    0 NMtDT0=    0
         I1Cent=           4 NGrid=           0.
 Symmetry not used in FoFCou.
 Requested convergence on RMS density matrix=1.00D-08 within 128 cycles.
 Requested convergence on MAX density matrix=1.00D-06.
 Requested convergence on             energy=1.00D-06.
 No special actions if energy rises.
 Integral accuracy reduced to 1.0D-05 until final iterations.
 Initial convergence to 1.0D-05 achieved.  Increase integral accuracy.
 SCF Done:  E(RHF) =  -573.767937559     A.U. after   12 cycles
             Convg  =    0.4967D-08             -V/T =  2.0017

 **********************************************************************

            Population analysis using the SCF density.

 **********************************************************************

 Alpha  occ. eigenvalues --  -20.56440 -20.56387 -20.56022 -20.56011 -11.27255
 Alpha  occ. eigenvalues --  -11.27192 -11.27142 -11.27132 -11.27062 -11.26940
 Alpha  occ. eigenvalues --  -11.26529  -1.37538  -1.36755  -1.35931  -1.35139
 Alpha  occ. eigenvalues --   -1.04227  -1.00793  -0.96199  -0.91179  -0.84426
 Alpha  occ. eigenvalues --   -0.84033  -0.83800  -0.70300  -0.69918  -0.68536
 Alpha  occ. eigenvalues --   -0.66414  -0.65835  -0.64808  -0.62784  -0.62447
 Alpha  occ. eigenvalues --   -0.61113  -0.59600  -0.58460  -0.55939  -0.54617
 Alpha  occ. eigenvalues --   -0.52530  -0.51547  -0.49563  -0.47345  -0.47126
 Alpha  occ. eigenvalues --   -0.46918  -0.44673  -0.42787  -0.42734  -0.42538
 Alpha virt. eigenvalues --    0.21709   0.23477   0.23797   0.24118   0.28524
 Alpha virt. eigenvalues --    0.28677   0.29061   0.30448   0.30453   0.31982
 Alpha virt. eigenvalues --    0.32345   0.32864   0.33916   0.35250   0.36251
 Alpha virt. eigenvalues --    0.36901   0.37571   0.37661   0.37710   0.38726
 Alpha virt. eigenvalues --    0.41439   0.42604   0.44407   0.44879   0.46360
 Alpha virt. eigenvalues --    0.53758   0.68205   0.73120   0.75779   0.76487
 Alpha virt. eigenvalues --    0.76672   0.77731   0.78294   0.78815   0.80108
 Alpha virt. eigenvalues --    0.81674   0.82270   0.82616   0.84527   0.90157
 Alpha virt. eigenvalues --    0.91600   0.93962   0.96822   0.99838   1.00475
 Alpha virt. eigenvalues --    1.01362   1.02273   1.05914   1.07289   1.11010
 Alpha virt. eigenvalues --    1.11210   1.12575   1.14247   1.14882   1.15882
 Alpha virt. eigenvalues --    1.18901   1.19164   1.19815   1.19946   1.20465
 Alpha virt. eigenvalues --    1.20624   1.20910   1.22178   1.23502   1.25463
 Alpha virt. eigenvalues --    1.26676   1.26895   1.29486   1.30238   1.32387
 Alpha virt. eigenvalues --    1.37856   1.41385   1.42813   1.44427   1.47554
 Alpha virt. eigenvalues --    1.52871   1.56462   1.62480   1.65727   1.66402
 Alpha virt. eigenvalues --    1.67094   1.68269   1.69098   1.70181   1.71955
 Alpha virt. eigenvalues --    1.74046   1.76469   1.79541   1.80910   1.83250
 Alpha virt. eigenvalues --    1.87784   1.94622   2.03731   2.06010   2.12237
 Alpha virt. eigenvalues --    2.13013   2.14307   2.14692   2.15732   2.16861
 Alpha virt. eigenvalues --    2.20729   2.27485   2.30627   2.33245   2.35054
 Alpha virt. eigenvalues --    2.36344   2.37965   2.39018   2.41456   2.41792
 Alpha virt. eigenvalues --    2.43703   2.46405   2.47475   2.48316   2.50156
 Alpha virt. eigenvalues --    2.51915   2.53869   2.58520   2.59183   2.60388
 Alpha virt. eigenvalues --    2.64435   2.67129   2.70152   2.71468   2.75015
 Alpha virt. eigenvalues --    2.81522   2.84206   2.86228   2.86768   2.86944
 Alpha virt. eigenvalues --    2.92948   3.00568   3.02984   3.05530   3.06249
 Alpha virt. eigenvalues --    3.07371   3.13023   3.25159   3.34349   3.40997
 Alpha virt. eigenvalues --    3.42670   4.12914   4.26513   4.41613   4.56721
 Alpha virt. eigenvalues --    4.64497   4.65703   4.66033   4.68651   4.83983
 Alpha virt. eigenvalues --    4.88287   4.92881
          Condensed to atoms (all electrons):
              1          2          3          4          5          6
     1  C    4.818856   0.402277   0.393624   0.393636   0.215696  -0.054773
     2  H    0.402277   0.499732  -0.030185  -0.030178  -0.028509   0.005033
     3  H    0.393624  -0.030185   0.570735  -0.043962  -0.039807  -0.007193
     4  H    0.393636  -0.030178  -0.043962   0.570705  -0.039806  -0.007211
     5  O    0.215696  -0.028509  -0.039807  -0.039806   8.440366   0.204163
     6  C   -0.054773   0.005033  -0.007193  -0.007211   0.204163   4.786228
     7  H   -0.005637  -0.000107  -0.001325   0.007717  -0.039435   0.392282
     8  H   -0.005606  -0.000109   0.007702  -0.001318  -0.039440   0.392289
     9  C    0.004465  -0.000082  -0.000148  -0.000147  -0.037163   0.391564
    10  H   -0.000172   0.000004  -0.000014   0.000018   0.003687  -0.039009
    11  H   -0.000172   0.000004   0.000018  -0.000014   0.003696  -0.039013
    12  O   -0.000042   0.000000   0.000001   0.000001   0.000731  -0.036837
    13  C    0.000002   0.000000   0.000000   0.000000  -0.000037   0.004328
    14  H    0.000000   0.000000   0.000000   0.000000   0.000001  -0.000077
    15  H    0.000000   0.000000   0.000000   0.000000   0.000001  -0.000077
    16  C    0.000000   0.000000   0.000000   0.000000   0.000000  -0.000079
    17  H    0.000000   0.000000   0.000000   0.000000   0.000000   0.000003
    18  H    0.000000   0.000000   0.000000   0.000000   0.000000   0.000003
    19  O    0.000000   0.000000   0.000000   0.000000   0.000000   0.000000
    20  C    0.000000   0.000000   0.000000   0.000000   0.000000   0.000000
    21  H    0.000000   0.000000   0.000000   0.000000   0.000000   0.000000
    22  H    0.000000   0.000000   0.000000   0.000000   0.000000   0.000000
    23  C    0.000000   0.000000   0.000000   0.000000   0.000000   0.000000
    24  H    0.000000   0.000000   0.000000   0.000000   0.000000   0.000000
    25  H    0.000000   0.000000   0.000000   0.000000   0.000000   0.000000
    26  O    0.000000   0.000000   0.000000   0.000000   0.000000   0.000000
    27  H    0.000000   0.000000   0.000000   0.000000   0.000000   0.000000
              7          8          9         10         11         12
     1  C   -0.005637  -0.005606   0.004465  -0.000172  -0.000172  -0.000042
     2  H   -0.000107  -0.000109  -0.000082   0.000004   0.000004   0.000000
     3  H   -0.001325   0.007702  -0.000148  -0.000014   0.000018   0.000001
     4  H    0.007717  -0.001318  -0.000147   0.000018  -0.000014   0.000001
     5  O   -0.039435  -0.039440  -0.037163   0.003687   0.003696   0.000731
     6  C    0.392282   0.392289   0.391564  -0.039009  -0.039013  -0.036837
     7  H    0.571195  -0.045598  -0.039723   0.005286  -0.006203   0.003687
     8  H   -0.045598   0.571133  -0.039743  -0.006201   0.005287   0.003694
     9  C   -0.039723  -0.039743   4.784376   0.393433   0.393419   0.195830
    10  H    0.005286  -0.006201   0.393433   0.564601  -0.044476  -0.038693
    11  H   -0.006203   0.005287   0.393419  -0.044476   0.564622  -0.038692
    12  O    0.003687   0.003694   0.195830  -0.038693  -0.038692   8.488642
    13  C   -0.000183  -0.000183  -0.048590  -0.006187  -0.006185   0.197405
    14  H    0.000016  -0.000011  -0.006117   0.007281  -0.001326  -0.038713
    15  H   -0.000011   0.000016  -0.006116  -0.001327   0.007280  -0.038711
    16  C    0.000003   0.000003   0.004318  -0.000074  -0.000074  -0.036753
    17  H    0.000000   0.000001  -0.000181  -0.000012   0.000016   0.003684
    18  H    0.000001   0.000000  -0.000180   0.000016  -0.000012   0.003686
    19  O    0.000000   0.000000  -0.000037   0.000001   0.000001   0.000732
    20  C    0.000000   0.000000   0.000002   0.000000   0.000000  -0.000037
    21  H    0.000000   0.000000   0.000000   0.000000   0.000000   0.000001
    22  H    0.000000   0.000000   0.000000   0.000000   0.000000   0.000001
    23  C    0.000000   0.000000   0.000000   0.000000   0.000000   0.000000
    24  H    0.000000   0.000000   0.000000   0.000000   0.000000   0.000000
    25  H    0.000000   0.000000   0.000000   0.000000   0.000000   0.000000
    26  O    0.000000   0.000000   0.000000   0.000000   0.000000   0.000000
    27  H    0.000000   0.000000   0.000000   0.000000   0.000000   0.000000
             13         14         15         16         17         18
     1  C    0.000002   0.000000   0.000000   0.000000   0.000000   0.000000
     2  H    0.000000   0.000000   0.000000   0.000000   0.000000   0.000000
     3  H    0.000000   0.000000   0.000000   0.000000   0.000000   0.000000
     4  H    0.000000   0.000000   0.000000   0.000000   0.000000   0.000000
     5  O   -0.000037   0.000001   0.000001   0.000000   0.000000   0.000000
     6  C    0.004328  -0.000077  -0.000077  -0.000079   0.000003   0.000003
     7  H   -0.000183   0.000016  -0.000011   0.000003   0.000000   0.000001
     8  H   -0.000183  -0.000011   0.000016   0.000003   0.000001   0.000000
     9  C   -0.048590  -0.006117  -0.006116   0.004318  -0.000181  -0.000180
    10  H   -0.006187   0.007281  -0.001327  -0.000074  -0.000012   0.000016
    11  H   -0.006185  -0.001326   0.007280  -0.000074   0.000016  -0.000012
    12  O    0.197405  -0.038713  -0.038711  -0.036753   0.003684   0.003686
    13  C    4.780514   0.393328   0.393333   0.392127  -0.039217  -0.039215
    14  H    0.393328   0.565636  -0.044643  -0.039276  -0.006153   0.005255
    15  H    0.393333  -0.044643   0.565628  -0.039287   0.005256  -0.006147
    16  C    0.392127  -0.039276  -0.039287   4.781203   0.393356   0.393362
    17  H   -0.039217  -0.006153   0.005256   0.393356   0.565228  -0.044594
    18  H   -0.039215   0.005255  -0.006147   0.393362  -0.044594   0.565194
    19  O   -0.036721   0.003682   0.003683   0.197141  -0.038703  -0.038702
    20  C    0.004344  -0.000181  -0.000181  -0.048195  -0.006143  -0.006141
    21  H   -0.000077   0.000016  -0.000011  -0.006204  -0.001320   0.007258
    22  H   -0.000077  -0.000011   0.000016  -0.006205   0.007259  -0.001320
    23  C   -0.000082   0.000003   0.000003   0.004255  -0.000080  -0.000080
    24  H    0.000003   0.000001   0.000000  -0.000201  -0.000011   0.000016
    25  H    0.000003   0.000000   0.000001  -0.000201   0.000016  -0.000011
    26  O    0.000000   0.000000   0.000000  -0.000042   0.000001   0.000001
    27  H    0.000000   0.000000   0.000000   0.000003   0.000000   0.000000
             19         20         21         22         23         24
     1  C    0.000000   0.000000   0.000000   0.000000   0.000000   0.000000
     2  H    0.000000   0.000000   0.000000   0.000000   0.000000   0.000000
     3  H    0.000000   0.000000   0.000000   0.000000   0.000000   0.000000
     4  H    0.000000   0.000000   0.000000   0.000000   0.000000   0.000000
     5  O    0.000000   0.000000   0.000000   0.000000   0.000000   0.000000
     6  C    0.000000   0.000000   0.000000   0.000000   0.000000   0.000000
     7  H    0.000000   0.000000   0.000000   0.000000   0.000000   0.000000
     8  H    0.000000   0.000000   0.000000   0.000000   0.000000   0.000000
     9  C   -0.000037   0.000002   0.000000   0.000000   0.000000   0.000000
    10  H    0.000001   0.000000   0.000000   0.000000   0.000000   0.000000
    11  H    0.000001   0.000000   0.000000   0.000000   0.000000   0.000000
    12  O    0.000732  -0.000037   0.000001   0.000001   0.000000   0.000000
    13  C   -0.036721   0.004344  -0.000077  -0.000077  -0.000082   0.000003
    14  H    0.003682  -0.000181   0.000016  -0.000011   0.000003   0.000001
    15  H    0.003683  -0.000181  -0.000011   0.000016   0.000003   0.000000
    16  C    0.197141  -0.048195  -0.006204  -0.006205   0.004255  -0.000201
    17  H   -0.038703  -0.006143  -0.001320   0.007259  -0.000080  -0.000011
    18  H   -0.038702  -0.006141   0.007258  -0.001320  -0.000080   0.000016
    19  O    8.486023   0.196911  -0.038530  -0.038530  -0.037104   0.003793
    20  C    0.196911   4.807338   0.392395   0.392395   0.379364  -0.043476
    21  H   -0.038530   0.392395   0.564185  -0.044540  -0.038807   0.005338
    22  H   -0.038530   0.392395  -0.044540   0.564182  -0.038806  -0.006246
    23  C   -0.037104   0.379364  -0.038807  -0.038806   4.754595   0.397921
    24  H    0.003793  -0.043476   0.005338  -0.006246   0.397921   0.568852
    25  H    0.003793  -0.043477  -0.006246   0.005338   0.397921  -0.043460
    26  O    0.000721  -0.042179   0.003968   0.003968   0.203980  -0.037767
    27  H   -0.000063   0.004892  -0.000205  -0.000205  -0.020096  -0.003173
             25         26         27
     1  C    0.000000   0.000000   0.000000
     2  H    0.000000   0.000000   0.000000
     3  H    0.000000   0.000000   0.000000
     4  H    0.000000   0.000000   0.000000
     5  O    0.000000   0.000000   0.000000
     6  C    0.000000   0.000000   0.000000
     7  H    0.000000   0.000000   0.000000
     8  H    0.000000   0.000000   0.000000
     9  C    0.000000   0.000000   0.000000
    10  H    0.000000   0.000000   0.000000
    11  H    0.000000   0.000000   0.000000
    12  O    0.000000   0.000000   0.000000
    13  C    0.000003   0.000000   0.000000
    14  H    0.000000   0.000000   0.000000
    15  H    0.000001   0.000000   0.000000
    16  C   -0.000201  -0.000042   0.000003
    17  H    0.000016   0.000001   0.000000
    18  H   -0.000011   0.000001   0.000000
    19  O    0.003793   0.000721  -0.000063
    20  C   -0.043477  -0.042179   0.004892
    21  H   -0.006246   0.003968  -0.000205
    22  H    0.005338   0.003968  -0.000205
    23  C    0.397921   0.203980  -0.020096
    24  H   -0.043460  -0.037767  -0.003173
    25  H    0.568852  -0.037767  -0.003173
    26  O   -0.037767   8.406203   0.259824
    27  H   -0.003173   0.259824   0.319224
 Mulliken atomic charges:
              1
     1  C   -0.162154
     2  H    0.182119
     3  H    0.150554
     4  H    0.150560
     5  O   -0.644143
     6  C    0.008375
     7  H    0.158036
     8  H    0.158085
     9  C    0.010820
    10  H    0.161836
    11  H    0.161824
    12  O   -0.669617
    13  C    0.011365
    14  H    0.161291
    15  H    0.161296
    16  C    0.010819
    17  H    0.161593
    18  H    0.161609
    19  O   -0.668092
    20  C    0.012368
    21  H    0.162780
    22  H    0.162781
    23  C   -0.002988
    24  H    0.158410
    25  H    0.158411
    26  O   -0.760911
    27  H    0.442973
 Sum of Mulliken atomic charges =   0.00000
 Mulliken charges with hydrogens summed into heavy atoms:
              1
     1  C    0.321080
     5  O   -0.644143
     6  C    0.324496
     9  C    0.334480
    12  O   -0.669617
    13  C    0.333952
    16  C    0.334021
    19  O   -0.668092
    20  C    0.337929
    23  C    0.313833
    26  O   -0.317939
 Sum of Mulliken charges with hydrogens summed into heavy atoms =   0.00000
 DipInt: DoE/N= T F RetVal/Mat= T F Init=T NMatP=  1 IDeriv=0 Min/MaxMlt=  0  4
 Entering OneElI...
 OneElI was handed    33452211 working-precision words.
 Multipole integrals L=0 to 4 MinM= 0 MaxM= 0.
 Requested accuracy = 0.1000D-12
 PrsmSu:  NPrtUS=   1 ThrOK=F IAlg=1
 PRISM was handed    33264646 working-precision words and  2201 shell-pairs
 IPart=  0 NShTot=        2201 NBatch=          35 AvBLen=        62.9
 Electronic moments (au):
        -90.00000000        620.22235904      -1021.75122259       -554.93067463
      -4384.17034679     -15260.28947689      -4767.23424424       7041.74513378
       3788.85957108      -8369.53933500      31735.90946723    -257060.08381765
     -45559.36562570     105497.84348627     -49752.14388332     -26531.65248243
      32521.78030379     -79264.70472725    -140989.04846986      57471.72133105
    -235145.61662343   -4626942.98927989    -466705.51456347     359655.37208314
     190133.10276655    1782471.35112342   -2532630.66821864     310491.72303790
    -804407.27221654    -747053.22009513    -227458.40021837   -1414012.66642283
    -404419.04021560     972078.98452388     543339.13222826
 Electronic spatial extent (au):  <R**2>=          24411.6941
 DipInt: DoE/N= F T RetVal/Mat= T F Init=T NMatP=  1 IDeriv=0 Min/MaxMlt=  0  4
 Nuclear    moments (au):
         90.00000000       -620.18187621       1021.67996042        554.95802221
       4332.98083300      15208.18928458       4726.39893697      -7035.24820074
      -3786.48670227       8378.25557718     -30683.08029105     255299.59454963
      44830.16335617    -104991.97414792      49094.97069020      26188.05593205
     -32204.28522369      78933.19677090     140885.97016015     -57459.28622494
     220307.20461423    4574859.93528813     454281.28437972    -346972.02401355
    -183437.31326607   -1766984.23978360    2523389.29011772    -305062.96669686
     795132.09472940     734002.60781626     222302.66338868    1408435.93535654
     399176.33631978    -969635.25457000    -540138.01238448
 Total      moments (au):
          0.00000000          0.04048283         -0.07126216          0.02734758
        -51.18951379        -52.10019231        -40.83530727          6.49693305
          2.37286880          8.71624218       1052.82917618      -1760.48926802
       -729.20226952        505.86933835       -657.17319312       -343.59655038
        317.49508010       -331.50795635       -103.07830971         12.43510611
     -14838.41200920     -52083.05399176     -12424.23018375      12683.34806960
       6695.78950049      15487.11133982      -9241.37810092       5428.75634105
      -9275.17748714     -13050.61227887      -5155.73682970      -5576.73106629
      -5242.70389583       2443.72995388       3201.11984379
 Traceless Quadrup. (au):
         -3.14784267         -4.05852118          7.20636385          6.49693305
          2.37286880          8.71624218
 Charge=              0.0000 electrons
 Dipole moment (field-independent basis, Debye):
    X=              0.1029    Y=             -0.1811    Z=              0.0695  Tot=              0.2196
 Quadrupole moment (field-independent basis, Debye-Ang):
   XX=            -68.8516   YY=            -70.0765   ZZ=            -54.9249
   XY=              8.7386   XZ=              3.1916   YZ=             11.7236
 Traceless Quadrupole moment (field-independent basis, Debye-Ang):
   XX=             -4.2340   YY=             -5.4588   ZZ=              9.6928
   XY=              8.7386   XZ=              3.1916   YZ=             11.7236
 Octapole moment (field-independent basis, Debye-Ang**2):
  XXX=            749.3632  YYY=          -1253.0484  ZZZ=           -519.0180  XYY=            360.0583
  XXY=           -467.7505  XXZ=           -244.5588  XZZ=            225.9808  YZZ=           -235.9546
  YYZ=            -73.3672  XYZ=              8.8508
 Hexadecapole moment (field-independent basis, Debye-Ang**3):
 XXXX=          -5588.8571 YYYY=         -19616.9743 ZZZZ=          -4679.5605 XXXY=           4777.1568
 XXXZ=           2521.9552 YYYX=           5833.1884 YYYZ=          -3480.7459 ZZZX=           2044.7298
 ZZZY=          -3493.4764 XXYY=          -4915.4861 XXZZ=          -1941.8976 YYZZ=          -2100.4642
 XXYZ=          -1974.6536 YYXZ=            920.4258 ZZXY=           1205.6952
 N-N= 6.145548987105D+02 E-N=-2.577610172675D+03  KE= 5.728178027251D+02
 Entering OneElI...
 OneElI was handed    33373721 working-precision words.
 Calculate electrostatic properties
    NBasis =   197  MinDer = 0  MaxDer = 0
    NGrid  =    27  NMatD  =   1
 Requested accuracy = 0.1000D-12
 PrsmSu:  NPrtUS=   1 ThrOK=F IAlg=1
 PRISM was handed    33202258 working-precision words and  1947 shell-pairs
 IPart=  0 NShTot=       52569 NBatch=        1947 AvBLen=        27.0
 --------------------------------------------------------
       Center         ----      EFG at Nuclei      ----
                      3XX-RR        3YY-RR        3ZZ-RR
 --------------------------------------------------------
     1   Atom        0.123282      0.070381     -0.193663
     2   Atom        0.116568     -0.279410      0.162842
     3   Atom        0.120268      0.053026     -0.173294
     4   Atom       -0.334098      0.169578      0.164521
     5   Atom        1.305678     -1.267826     -0.037853
     6   Atom        0.140665     -0.298469      0.157804
     7   Atom       -0.330627      0.157994      0.172633
     8   Atom        0.117827      0.048215     -0.166042
     9   Atom        0.146132     -0.311461      0.165329
    10   Atom       -0.330069      0.157324      0.172744
    11   Atom        0.117515      0.048044     -0.165559
    12   Atom        1.295578     -1.256425     -0.039153
    13   Atom        0.146004      0.029243     -0.175248
    14   Atom       -0.330057      0.164330      0.165728
    15   Atom        0.117674      0.049185     -0.166860
    16   Atom        0.146429      0.029855     -0.176284
    17   Atom        0.117566      0.049111     -0.166677
    18   Atom       -0.330021      0.164335      0.165686
    19   Atom        1.297638     -1.259916     -0.037722
    20   Atom        0.146851     -0.309397      0.162546
    21   Atom       -0.329956      0.157262      0.172694
    22   Atom        0.117452      0.047951     -0.165403
    23   Atom        0.147561     -0.311031      0.163470
    24   Atom       -0.331229      0.159353      0.171876
    25   Atom        0.117415      0.048523     -0.165937
    26   Atom        1.272731     -1.271217     -0.001514
    27   Atom        0.174802      0.063099     -0.237901
 --------------------------------------------------------
                        XY            XZ            YZ
 --------------------------------------------------------
     1   Atom       -0.092840     -0.155132     -0.218010
     2   Atom        0.158869     -0.007322     -0.004195
     3   Atom       -0.085440      0.134225      0.186807
     4   Atom       -0.000913     -0.002471     -0.011656
     5   Atom        0.499159     -0.876741     -1.082545
     6   Atom        0.173310     -0.032915     -0.017662
     7   Atom       -0.000021     -0.002277     -0.005403
     8   Atom       -0.076049      0.138773      0.187489
     9   Atom        0.179983     -0.032664     -0.018460
    10   Atom       -0.000146     -0.002108     -0.005246
    11   Atom       -0.075674      0.138979      0.187073
    12   Atom        0.502087     -0.868764     -1.065447
    13   Atom       -0.059909     -0.170942     -0.214047
    14   Atom        0.001112     -0.001335     -0.009328
    15   Atom       -0.082633      0.134801      0.186388
    16   Atom       -0.060363     -0.171282     -0.214864
    17   Atom       -0.082758      0.134884      0.186350
    18   Atom        0.001172     -0.001494     -0.009364
    19   Atom        0.504356     -0.867972     -1.065029
    20   Atom        0.179091     -0.035048     -0.019639
    21   Atom       -0.000058     -0.002191     -0.005327
    22   Atom       -0.075760      0.139027      0.186954
    23   Atom        0.175423     -0.030719     -0.024745
    24   Atom        0.001183     -0.002706     -0.004683
    25   Atom       -0.076450      0.137900      0.188826
    26   Atom        0.516433     -0.833892     -1.027724
    27   Atom       -0.093887     -0.213229     -0.274972
 --------------------------------------------------------


 ---------------------------------------------------------------------------------
              Nuclear Quadrupole in Principal Axis System
 ---------------------------------------------------------------------------------

       Atom             a.u.   MegaHertz   Gauss  10(-4) cm-1        Axes

              Baa    -0.3813   -51.161   -18.255   -17.065  0.3372  0.4646  0.8188
     1 C(13)  Bbb     0.1855    24.888     8.881     8.302  0.8163  0.2890 -0.5002
              Bcc     0.1958    26.272     9.375     8.763 -0.4690  0.8371 -0.2818
 
              Baa    -0.3353  -178.886   -63.831   -59.670 -0.3317  0.9434  0.0031
     2 H(1)   Bbb     0.1581    84.331    30.091    28.130  0.4726  0.1633  0.8660
              Bcc     0.1772    94.555    33.740    31.540  0.8165  0.2887 -0.5000
 
              Baa    -0.3341  -178.268   -63.610   -59.464 -0.3302 -0.4683  0.8196
     3 H(1)   Bbb     0.1551    82.775    29.536    27.611  0.3414  0.7502  0.5662
              Bcc     0.1790    95.493    34.074    31.853  0.8800 -0.4668  0.0878
 
              Baa    -0.3341  -178.267   -63.610   -59.463  1.0000  0.0019  0.0050
     4 H(1)   Bbb     0.1551    82.772    29.535    27.610 -0.0051  0.6278  0.7783
              Bcc     0.1790    95.494    34.075    31.853  0.0016  0.7783 -0.6278
 
              Baa    -1.8979   137.331    49.003    45.809  0.0034  0.8636  0.5042
     5 O(17)  Bbb    -0.1211     8.762     3.127     2.923  0.5773 -0.4134  0.7041
              Bcc     2.0190  -146.094   -52.130   -48.732  0.8165  0.2887 -0.5000
 
              Baa    -0.3587   -48.133   -17.175   -16.056 -0.3272  0.9449  0.0115
     6 C(13)  Bbb     0.1367    18.339     6.544     6.117  0.4742  0.1537  0.8669
              Bcc     0.2220    29.794    10.631     9.938  0.8173  0.2891 -0.4984
 
              Baa    -0.3306  -176.413   -62.948   -58.845  1.0000  0.0001  0.0045
     7 H(1)   Bbb     0.1562    83.350    29.741    27.803 -0.0015  0.9499  0.3124
              Bcc     0.1744    93.062    33.207    31.042 -0.0043 -0.3124  0.9499
 
              Baa    -0.3307  -176.423   -62.952   -58.848 -0.3327 -0.4711  0.8170
     8 H(1)   Bbb     0.1563    83.371    29.749    27.809 -0.1935  0.8820  0.4297
              Bcc     0.1744    93.052    33.203    31.039  0.9230  0.0151  0.3846
 
              Baa    -0.3739   -50.168   -17.901   -16.734 -0.3264  0.9452  0.0126
     9 C(13)  Bbb     0.1442    19.352     6.905     6.455  0.4745  0.1523  0.8670
              Bcc     0.2296    30.816    10.996    10.279  0.8175  0.2889 -0.4982
 
              Baa    -0.3301  -176.114   -62.842   -58.745  1.0000  0.0003  0.0042
    10 H(1)   Bbb     0.1557    83.080    29.645    27.712 -0.0016  0.9558  0.2941
              Bcc     0.1744    93.034    33.197    31.033 -0.0039 -0.2941  0.9558
 
              Baa    -0.3301  -176.115   -62.842   -58.746 -0.3332 -0.4708  0.8169
    11 H(1)   Bbb     0.1557    83.083    29.646    27.713 -0.2112  0.8816  0.4220
              Bcc     0.1744    93.033    33.196    31.032  0.9189  0.0319  0.3933
 
              Baa    -1.8748   135.661    48.407    45.252  0.0007  0.8647  0.5022
    12 O(17)  Bbb    -0.1280     9.263     3.305     3.090  0.5761 -0.4108  0.7066
              Bcc     2.0028  -144.924   -51.712   -48.341  0.8174  0.2889 -0.4985
 
              Baa    -0.3709   -49.768   -17.759   -16.601  0.3249  0.4835  0.8128
    13 C(13)  Bbb     0.1418    19.027     6.789     6.347 -0.4758  0.8263 -0.3013
              Bcc     0.2291    30.741    10.969    10.254  0.8173  0.2889 -0.4985
 
              Baa    -0.3301  -176.106   -62.839   -58.743  1.0000 -0.0022  0.0027
    14 H(1)   Bbb     0.1557    83.061    29.638    27.706 -0.0002  0.7331  0.6802
              Bcc     0.1744    93.046    33.201    31.037 -0.0034 -0.6802  0.7331
 
              Baa    -0.3301  -176.106   -62.839   -58.743 -0.3329 -0.4733  0.8155
    15 H(1)   Bbb     0.1557    83.060    29.638    27.706  0.2082  0.8066  0.5532
              Bcc     0.1744    93.046    33.201    31.037  0.9197 -0.3539  0.1700
 
              Baa    -0.3723   -49.965   -17.829   -16.666  0.3247  0.4831  0.8131
    16 C(13)  Bbb     0.1429    19.173     6.841     6.396 -0.4757  0.8265 -0.3011
              Bcc     0.2295    30.791    10.987    10.271  0.8175  0.2890 -0.4982
 
              Baa    -0.3300  -176.086   -62.832   -58.736 -0.3332 -0.4735  0.8153
    17 H(1)   Bbb     0.1556    83.032    29.628    27.696  0.2090  0.8061  0.5536
              Bcc     0.1744    93.055    33.204    31.040  0.9194 -0.3549  0.1697
 
              Baa    -0.3300  -176.087   -62.832   -58.736  1.0000 -0.0023  0.0030
    18 H(1)   Bbb     0.1556    83.033    29.628    27.697 -0.0003  0.7321  0.6812
              Bcc     0.1744    93.055    33.204    31.040 -0.0038 -0.6812  0.7321
 
              Baa    -1.8767   135.798    48.456    45.297 -0.0005  0.8655  0.5010
    19 O(17)  Bbb    -0.1279     9.252     3.301     3.086  0.5758 -0.4093  0.7078
              Bcc     2.0046  -145.050   -51.757   -48.383  0.8176  0.2888 -0.4981
 
              Baa    -0.3714   -49.837   -17.783   -16.624 -0.3258  0.9454  0.0134
    20 C(13)  Bbb     0.1399    18.777     6.700     6.263  0.4747  0.1513  0.8670
              Bcc     0.2315    31.060    11.083    10.361  0.8176  0.2888 -0.4981
 
              Baa    -0.3300  -176.054   -62.820   -58.725  1.0000  0.0002  0.0044
    21 H(1)   Bbb     0.1556    83.022    29.624    27.693 -0.0015  0.9548  0.2974
              Bcc     0.1744    93.032    33.196    31.032 -0.0041 -0.2974  0.9547
 
              Baa    -0.3300  -176.054   -62.820   -58.725 -0.3335 -0.4709  0.8167
    22 H(1)   Bbb     0.1556    83.022    29.624    27.693 -0.2082  0.8817  0.4233
              Bcc     0.1744    93.032    33.196    31.032  0.9195  0.0288  0.3921
 
              Baa    -0.3708   -49.756   -17.754   -16.597 -0.3191  0.9474  0.0255
    23 C(13)  Bbb     0.1425    19.128     6.825     6.380  0.4793  0.1381  0.8667
              Bcc     0.2282    30.628    10.929    10.216  0.8176  0.2888 -0.4981
 
              Baa    -0.3312  -176.737   -63.064   -58.953  1.0000 -0.0024  0.0054
    24 H(1)   Bbb     0.1578    84.192    30.042    28.084  0.0005  0.9489  0.3157
              Bcc     0.1735    92.545    33.022    30.870 -0.0058 -0.3157  0.9489
 
              Baa    -0.3312  -176.737   -63.064   -58.953 -0.3315 -0.4727  0.8165
    25 H(1)   Bbb     0.1578    84.192    30.042    28.084 -0.1912  0.8811  0.4325
              Bcc     0.1734    92.545    33.022    30.870  0.9239  0.0127  0.3825
 
              Baa    -1.8451   133.510    47.640    44.534 -0.0165  0.8765  0.4811
    26 O(17)  Bbb    -0.1181     8.544     3.049     2.850  0.5755 -0.3852  0.7214
              Bcc     1.9632  -142.055   -50.689   -47.384  0.8176  0.2888 -0.4981
 
              Baa    -0.4824  -257.390   -91.843   -85.856  0.3325  0.4695  0.8179
    27 H(1)   Bbb     0.2109   112.509    40.146    37.529 -0.4701  0.8343 -0.2879
              Bcc     0.2715   144.881    51.697    48.327  0.8176  0.2888 -0.4981
 

 ---------------------------------------------------------------------------------

 No NMR shielding tensors so no spin-rotation constants.
 Leave Link  601 at Mon May  1 18:03:42 2017, MaxMem=   33554432 cpu:       0.2
 Merz-Kollman atomic radii used.
 Atom Element Radius
    1     6    1.50
    2     1    1.20
    3     1    1.20
    4     1    1.20
    5     8    1.40
    6     6    1.50
    7     1    1.20
    8     1    1.20
    9     6    1.50
   10     1    1.20
   11     1    1.20
   12     8    1.40
   13     6    1.50
   14     1    1.20
   15     1    1.20
   16     6    1.50
   17     1    1.20
   18     1    1.20
   19     8    1.40
   20     6    1.50
   21     1    1.20
   22     1    1.20
   23     6    1.50
   24     1    1.20
   25     1    1.20
   26     8    1.40
   27     1    1.20
 Generate VDW surfaces: Layer= 4 Dens= 6 Start= 1.400 Inc= 0.200

 **********************************************************************

            Electrostatic Properties Using The SCF Density

 **********************************************************************

       Atomic Center    1 is at  -3.871882  1.009070  0.000000
       Atomic Center    2 is at  -3.515227  0.000260  0.000000
       Atomic Center    3 is at  -3.515209  1.513468 -0.873652
       Atomic Center    4 is at  -4.941882  1.009083  0.000000
       Atomic Center    5 is at  -3.395207  1.683173  1.167590
       Atomic Center    6 is at  -3.871516  3.031516  1.168211
       Atomic Center    7 is at  -4.941515  3.031800  1.166410
       Atomic Center    8 is at  -3.513246  3.536745  0.295695
       Atomic Center    9 is at  -3.360108  3.756014  2.427244
       Atomic Center   10 is at  -2.290110  3.755636  2.429098
       Atomic Center   11 is at  -3.718466  3.250846  3.299761
       Atomic Center   12 is at  -3.836300  5.104399  2.427794
       Atomic Center   13 is at  -3.361538  5.777824  3.596554
       Atomic Center   14 is at  -2.291540  5.777764  3.598333
       Atomic Center   15 is at  -3.719685  5.272951  4.469327
       Atomic Center   16 is at  -3.874791  7.229779  3.596515
       Atomic Center   17 is at  -3.516284  7.734764  2.723954
       Atomic Center   18 is at  -4.944789  7.229938  3.594352
       Atomic Center   19 is at  -3.400387  7.902967  4.765556
       Atomic Center   20 is at  -3.876382  9.251422  4.766114
       Atomic Center   21 is at  -4.946379  9.251956  4.764024
       Atomic Center   22 is at  -3.517758  9.756610  3.893718
       Atomic Center   23 is at  -3.365144  9.975740  6.025320
       Atomic Center   24 is at  -2.295147  9.975207  6.027408
       Atomic Center   25 is at  -3.723766  9.470551  6.897715
       Atomic Center   26 is at  -3.841141 11.324193  6.025879
       Atomic Center   27 is at  -3.522661 11.776124  6.810690
      ESP Fit Center   28 is at  -4.863828  0.394883  1.746086
      ESP Fit Center   29 is at  -4.574974  0.078026  1.746086
      ESP Fit Center   30 is at  -4.191164 -0.113089  1.746086
      ESP Fit Center   31 is at  -5.121080  0.206260  1.484924
      ESP Fit Center   32 is at  -4.844300 -0.113161  1.484924
      ESP Fit Center   33 is at  -4.488742 -0.341664  1.484924
      ESP Fit Center   34 is at  -4.863772 -0.427930  1.166697
      ESP Fit Center   35 is at  -4.960667 -0.596768  0.803635
      ESP Fit Center   36 is at  -5.132605 -0.619650  0.409690
      ESP Fit Center   37 is at  -1.854394  0.594466  0.409690
      ESP Fit Center   38 is at  -1.771882  1.009070  0.000000
      ESP Fit Center   39 is at  -1.812233  1.418760  0.000000
      ESP Fit Center   40 is at  -5.038579 -0.737016  0.000000
      ESP Fit Center   41 is at  -1.812233  0.599381  0.000000
      ESP Fit Center   42 is at  -1.812233  1.009070 -0.409690
      ESP Fit Center   43 is at  -1.854394  1.423675 -0.409690
      ESP Fit Center   44 is at  -5.132605 -0.619650 -0.409690
      ESP Fit Center   45 is at  -1.854394  0.594466 -0.409690
      ESP Fit Center   46 is at  -4.590004  2.811422 -0.803635
      ESP Fit Center   47 is at  -4.960667  2.614909 -0.803635
      ESP Fit Center   48 is at  -4.960667 -0.596768 -0.803635
      ESP Fit Center   49 is at  -1.977094  0.591996 -0.803635
      ESP Fit Center   50 is at  -4.863772 -0.427930 -1.166697
      ESP Fit Center   51 is at  -5.121080  1.811881 -1.484924
      ESP Fit Center   52 is at  -5.121080  0.206260 -1.484924
      ESP Fit Center   53 is at  -4.844300 -0.113161 -1.484924
      ESP Fit Center   54 is at  -4.488742 -0.341664 -1.484924
      ESP Fit Center   55 is at  -2.622684  0.206260 -1.484924
      ESP Fit Center   56 is at  -5.018714  1.223450 -1.746086
      ESP Fit Center   57 is at  -5.018714  0.794690 -1.746086
      ESP Fit Center   58 is at  -4.863828  0.394883 -1.746086
      ESP Fit Center   59 is at  -4.574974  0.078026 -1.746086
      ESP Fit Center   60 is at  -4.191164 -0.113089 -1.746086
      ESP Fit Center   61 is at  -3.764233 -0.152650 -1.746086
      ESP Fit Center   62 is at  -3.351840 -0.035314 -1.746086
      ESP Fit Center   63 is at  -4.567850  0.607253 -1.940147
      ESP Fit Center   64 is at  -4.273700  0.313102 -1.940147
      ESP Fit Center   65 is at  -3.871882  0.205435 -1.940147
      ESP Fit Center   66 is at  -3.732635 -0.376301  1.622755
      ESP Fit Center   67 is at  -3.297819 -0.376301  1.622755
      ESP Fit Center   68 is at  -3.935227 -0.727201  1.454923
      ESP Fit Center   69 is at  -3.515227 -0.839740  1.454923
      ESP Fit Center   70 is at  -3.095227 -0.727201  1.454923
      ESP Fit Center   71 is at  -2.787766 -0.419740  1.454923
      ESP Fit Center   72 is at  -2.327288  0.000260  1.187939
      ESP Fit Center   73 is at  -4.525234 -0.625109  1.187939
      ESP Fit Center   74 is at  -4.231121 -0.947736  1.187939
      ESP Fit Center   75 is at  -3.840323 -1.142330  1.187939
      ESP Fit Center   76 is at  -3.405618 -1.182612  1.187939
      ESP Fit Center   77 is at  -2.985717 -1.063139  1.187939
      ESP Fit Center   78 is at  -2.637330 -0.800049  1.187939
      ESP Fit Center   79 is at  -2.407507 -0.428873  1.187939
      ESP Fit Center   80 is at  -2.060305  0.000260  0.840000
      ESP Fit Center   81 is at  -4.581761 -0.989338  0.840000
      ESP Fit Center   82 is at  -4.242689 -1.259740  0.840000
      ESP Fit Center   83 is at  -3.838978 -1.418184  0.840000
      ESP Fit Center   84 is at  -3.406501 -1.450594  0.840000
      ESP Fit Center   85 is at  -2.983685 -1.354089  0.840000
      ESP Fit Center   86 is at  -2.608098 -1.137244  0.840000
      ESP Fit Center   87 is at  -2.313114 -0.819327  0.840000
      ESP Fit Center   88 is at  -2.124943 -0.428586  0.840000
      ESP Fit Center   89 is at  -1.892472  0.000260  0.434816
      ESP Fit Center   90 is at  -4.920575 -0.811117  0.434816
      ESP Fit Center   91 is at  -4.662689 -1.147201  0.434816
      ESP Fit Center   92 is at  -4.326605 -1.405087  0.434816
      ESP Fit Center   93 is at  -3.935227 -1.567201  0.434816
      ESP Fit Center   94 is at  -3.515227 -1.622495  0.434816
      ESP Fit Center   95 is at  -3.095227 -1.567201  0.434816
      ESP Fit Center   96 is at  -2.703850 -1.405087  0.434816
      ESP Fit Center   97 is at  -2.367766 -1.147201  0.434816
      ESP Fit Center   98 is at  -2.109880 -0.811117  0.434816
      ESP Fit Center   99 is at  -1.947766 -0.419740  0.434816
      ESP Fit Center  100 is at  -1.835227  0.000260  0.000000
      ESP Fit Center  101 is at  -4.874376 -0.987219  0.000000
      ESP Fit Center  102 is at  -4.586100 -1.294202  0.000000
      ESP Fit Center  103 is at  -4.230537 -1.519849  0.000000
      ESP Fit Center  104 is at  -3.830028 -1.649982  0.000000
      ESP Fit Center  105 is at  -3.409739 -1.676425  0.000000
      ESP Fit Center  106 is at  -2.996079 -1.597515  0.000000
      ESP Fit Center  107 is at  -2.615038 -1.418211  0.000000
      ESP Fit Center  108 is at  -2.290560 -1.149779  0.000000
      ESP Fit Center  109 is at  -2.043032 -0.809086  0.000000
      ESP Fit Center  110 is at  -1.888008 -0.417539  0.000000
      ESP Fit Center  111 is at  -1.892472  0.000260 -0.434816
      ESP Fit Center  112 is at  -4.920575 -0.811117 -0.434816
      ESP Fit Center  113 is at  -4.662689 -1.147201 -0.434816
      ESP Fit Center  114 is at  -4.326605 -1.405087 -0.434816
      ESP Fit Center  115 is at  -3.935227 -1.567201 -0.434816
      ESP Fit Center  116 is at  -3.515227 -1.622495 -0.434816
      ESP Fit Center  117 is at  -3.095227 -1.567201 -0.434816
      ESP Fit Center  118 is at  -2.703850 -1.405087 -0.434816
      ESP Fit Center  119 is at  -2.367766 -1.147201 -0.434816
      ESP Fit Center  120 is at  -2.109880 -0.811117 -0.434816
      ESP Fit Center  121 is at  -1.947766 -0.419740 -0.434816
      ESP Fit Center  122 is at  -2.060305  0.000260 -0.840000
      ESP Fit Center  123 is at  -4.581761 -0.989338 -0.840000
      ESP Fit Center  124 is at  -4.242689 -1.259740 -0.840000
      ESP Fit Center  125 is at  -3.838978 -1.418184 -0.840000
      ESP Fit Center  126 is at  -3.406501 -1.450594 -0.840000
      ESP Fit Center  127 is at  -2.983685 -1.354089 -0.840000
      ESP Fit Center  128 is at  -2.608098 -1.137244 -0.840000
      ESP Fit Center  129 is at  -2.313114 -0.819327 -0.840000
      ESP Fit Center  130 is at  -2.124943 -0.428586 -0.840000
      ESP Fit Center  131 is at  -2.327288  0.000260 -1.187939
      ESP Fit Center  132 is at  -4.525234 -0.625109 -1.187939
      ESP Fit Center  133 is at  -4.231121 -0.947736 -1.187939
      ESP Fit Center  134 is at  -3.840323 -1.142330 -1.187939
      ESP Fit Center  135 is at  -3.405618 -1.182612 -1.187939
      ESP Fit Center  136 is at  -2.985717 -1.063139 -1.187939
      ESP Fit Center  137 is at  -2.637330 -0.800049 -1.187939
      ESP Fit Center  138 is at  -2.407507 -0.428873 -1.187939
      ESP Fit Center  139 is at  -2.675227  0.000260 -1.454923
      ESP Fit Center  140 is at  -3.935227 -0.727201 -1.454923
      ESP Fit Center  141 is at  -3.515227 -0.839740 -1.454923
      ESP Fit Center  142 is at  -3.095227 -0.727201 -1.454923
      ESP Fit Center  143 is at  -2.787766 -0.419740 -1.454923
      ESP Fit Center  144 is at  -3.732635 -0.376301 -1.622755
      ESP Fit Center  145 is at  -3.297819 -0.376301 -1.622755
      ESP Fit Center  146 is at  -1.947748  1.933468 -0.438836
      ESP Fit Center  147 is at  -2.109862  2.324846 -0.438836
      ESP Fit Center  148 is at  -1.835209  1.513468 -0.873652
      ESP Fit Center  149 is at  -1.887989  1.931267 -0.873652
      ESP Fit Center  150 is at  -2.043014  2.322815 -0.873652
      ESP Fit Center  151 is at  -2.290542  2.663508 -0.873652
      ESP Fit Center  152 is at  -4.586081  2.807931 -0.873652
      ESP Fit Center  153 is at  -1.887989  1.095669 -0.873652
      ESP Fit Center  154 is at  -1.892454  1.513468 -1.308467
      ESP Fit Center  155 is at  -1.947748  1.933468 -1.308467
      ESP Fit Center  156 is at  -2.109862  2.324846 -1.308467
      ESP Fit Center  157 is at  -2.367748  2.660930 -1.308467
      ESP Fit Center  158 is at  -2.703831  2.918816 -1.308467
      ESP Fit Center  159 is at  -3.095209  3.080930 -1.308467
      ESP Fit Center  160 is at  -3.935209  3.080930 -1.308467
      ESP Fit Center  161 is at  -4.326587  2.918816 -1.308467
      ESP Fit Center  162 is at  -4.662670  2.660930 -1.308467
      ESP Fit Center  163 is at  -4.920556  2.324846 -1.308467
      ESP Fit Center  164 is at  -2.109862  0.702091 -1.308467
      ESP Fit Center  165 is at  -1.947748  1.093468 -1.308467
      ESP Fit Center  166 is at  -2.060286  1.513468 -1.713652
      ESP Fit Center  167 is at  -2.124925  1.942314 -1.713652
      ESP Fit Center  168 is at  -2.313096  2.333056 -1.713652
      ESP Fit Center  169 is at  -2.608080  2.650973 -1.713652
      ESP Fit Center  170 is at  -2.983666  2.867818 -1.713652
      ESP Fit Center  171 is at  -3.406483  2.964323 -1.713652
      ESP Fit Center  172 is at  -3.838960  2.931913 -1.713652
      ESP Fit Center  173 is at  -4.242670  2.773468 -1.713652
      ESP Fit Center  174 is at  -4.581743  2.503067 -1.713652
      ESP Fit Center  175 is at  -4.826049  2.144736 -1.713652
      ESP Fit Center  176 is at  -4.953881  1.730313 -1.713652
      ESP Fit Center  177 is at  -2.983666  0.159119 -1.713652
      ESP Fit Center  178 is at  -2.608080  0.375964 -1.713652
      ESP Fit Center  179 is at  -2.313096  0.693881 -1.713652
      ESP Fit Center  180 is at  -2.124925  1.084622 -1.713652
      ESP Fit Center  181 is at  -2.327270  1.513468 -2.061591
      ESP Fit Center  182 is at  -2.407489  1.942602 -2.061591
      ESP Fit Center  183 is at  -2.637311  2.313778 -2.061591
      ESP Fit Center  184 is at  -2.985699  2.576868 -2.061591
      ESP Fit Center  185 is at  -3.405600  2.696340 -2.061591
      ESP Fit Center  186 is at  -3.840304  2.656059 -2.061591
      ESP Fit Center  187 is at  -4.231102  2.461465 -2.061591
      ESP Fit Center  188 is at  -4.525215  2.138838 -2.061591
      ESP Fit Center  189 is at  -4.682922  1.731752 -2.061591
      ESP Fit Center  190 is at  -4.682922  1.295185 -2.061591
      ESP Fit Center  191 is at  -4.525215  0.888099 -2.061591
      ESP Fit Center  192 is at  -4.231102  0.565472 -2.061591
      ESP Fit Center  193 is at  -3.840304  0.370878 -2.061591
      ESP Fit Center  194 is at  -3.405600  0.330597 -2.061591
      ESP Fit Center  195 is at  -2.985699  0.450069 -2.061591
      ESP Fit Center  196 is at  -2.637311  0.713159 -2.061591
      ESP Fit Center  197 is at  -2.407489  1.084335 -2.061591
      ESP Fit Center  198 is at  -2.675209  1.513468 -2.328574
      ESP Fit Center  199 is at  -2.787748  1.933468 -2.328574
      ESP Fit Center  200 is at  -3.095209  2.240930 -2.328574
      ESP Fit Center  201 is at  -3.515209  2.353468 -2.328574
      ESP Fit Center  202 is at  -3.935209  2.240930 -2.328574
      ESP Fit Center  203 is at  -4.242670  1.933468 -2.328574
      ESP Fit Center  204 is at  -4.355209  1.513468 -2.328574
      ESP Fit Center  205 is at  -4.242670  1.093468 -2.328574
      ESP Fit Center  206 is at  -3.935209  0.786007 -2.328574
      ESP Fit Center  207 is at  -3.515209  0.673468 -2.328574
      ESP Fit Center  208 is at  -3.095209  0.786007 -2.328574
      ESP Fit Center  209 is at  -2.787748  1.093468 -2.328574
      ESP Fit Center  210 is at  -3.080393  1.513468 -2.496407
      ESP Fit Center  211 is at  -3.297801  1.890030 -2.496407
      ESP Fit Center  212 is at  -3.732617  1.890030 -2.496407
      ESP Fit Center  213 is at  -3.950025  1.513468 -2.496407
      ESP Fit Center  214 is at  -3.732617  1.136907 -2.496407
      ESP Fit Center  215 is at  -3.297801  1.136907 -2.496407
      ESP Fit Center  216 is at  -3.515209  1.513468 -2.553652
      ESP Fit Center  217 is at  -5.376698  1.009083  1.622755
      ESP Fit Center  218 is at  -5.159290  0.632522  1.622755
      ESP Fit Center  219 is at  -5.669343  1.429083  1.454923
      ESP Fit Center  220 is at  -5.781882  1.009083  1.454923
      ESP Fit Center  221 is at  -5.669343  0.589083  1.454923
      ESP Fit Center  222 is at  -5.361882  0.281622  1.454923
      ESP Fit Center  223 is at  -5.951888  1.634453  1.187939
      ESP Fit Center  224 is at  -6.109594  1.227367  1.187939
      ESP Fit Center  225 is at  -6.109594  0.790800  1.187939
      ESP Fit Center  226 is at  -5.951888  0.383714  1.187939
      ESP Fit Center  227 is at  -5.657775  0.061087  1.187939
      ESP Fit Center  228 is at  -5.266977 -0.133507  1.187939
      ESP Fit Center  229 is at  -6.252722  1.640351  0.840000
      ESP Fit Center  230 is at  -6.380554  1.225928  0.840000
      ESP Fit Center  231 is at  -6.380554  0.792238  0.840000
      ESP Fit Center  232 is at  -6.252722  0.377816  0.840000
      ESP Fit Center  233 is at  -6.008416  0.019485  0.840000
      ESP Fit Center  234 is at  -5.669343 -0.250917  0.840000
      ESP Fit Center  235 is at  -5.265633 -0.409361  0.840000
      ESP Fit Center  236 is at  -6.347229  1.820461  0.434816
      ESP Fit Center  237 is at  -6.509343  1.429083  0.434816
      ESP Fit Center  238 is at  -6.564637  1.009083  0.434816
      ESP Fit Center  239 is at  -6.509343  0.589083  0.434816
      ESP Fit Center  240 is at  -6.347229  0.197706  0.434816
      ESP Fit Center  241 is at  -6.089343 -0.138378  0.434816
      ESP Fit Center  242 is at  -5.753260 -0.396264  0.434816
      ESP Fit Center  243 is at  -5.361882 -0.558378  0.434816
      ESP Fit Center  244 is at  -6.012754  2.303546  0.000000
      ESP Fit Center  245 is at  -6.301030  1.996563  0.000000
      ESP Fit Center  246 is at  -6.503906  1.627533  0.000000
      ESP Fit Center  247 is at  -6.608635  1.219643  0.000000
      ESP Fit Center  248 is at  -6.608635  0.798524  0.000000
      ESP Fit Center  249 is at  -6.503906  0.390634  0.000000
      ESP Fit Center  250 is at  -6.301030  0.021604  0.000000
      ESP Fit Center  251 is at  -6.012754 -0.285379  0.000000
      ESP Fit Center  252 is at  -5.657191 -0.511026  0.000000
      ESP Fit Center  253 is at  -5.256683 -0.641159  0.000000
      ESP Fit Center  254 is at  -5.361882  2.576545 -0.434816
      ESP Fit Center  255 is at  -5.753260  2.414431 -0.434816
      ESP Fit Center  256 is at  -6.089343  2.156545 -0.434816
      ESP Fit Center  257 is at  -6.347229  1.820461 -0.434816
      ESP Fit Center  258 is at  -6.509343  1.429083 -0.434816
      ESP Fit Center  259 is at  -6.564637  1.009083 -0.434816
      ESP Fit Center  260 is at  -6.509343  0.589083 -0.434816
      ESP Fit Center  261 is at  -6.347229  0.197706 -0.434816
      ESP Fit Center  262 is at  -6.089343 -0.138378 -0.434816
      ESP Fit Center  263 is at  -5.753260 -0.396264 -0.434816
      ESP Fit Center  264 is at  -5.361882 -0.558378 -0.434816
      ESP Fit Center  265 is at  -5.265633  2.427528 -0.840000
      ESP Fit Center  266 is at  -5.669343  2.269083 -0.840000
      ESP Fit Center  267 is at  -6.008416  1.998682 -0.840000
      ESP Fit Center  268 is at  -6.252722  1.640351 -0.840000
      ESP Fit Center  269 is at  -6.380554  1.225928 -0.840000
      ESP Fit Center  270 is at  -6.380554  0.792238 -0.840000
      ESP Fit Center  271 is at  -6.252722  0.377816 -0.840000
      ESP Fit Center  272 is at  -6.008416  0.019485 -0.840000
      ESP Fit Center  273 is at  -5.669343 -0.250917 -0.840000
      ESP Fit Center  274 is at  -5.265633 -0.409361 -0.840000
      ESP Fit Center  275 is at  -5.266977  2.151674 -1.187939
      ESP Fit Center  276 is at  -5.657775  1.957080 -1.187939
      ESP Fit Center  277 is at  -5.951888  1.634453 -1.187939
      ESP Fit Center  278 is at  -6.109594  1.227367 -1.187939
      ESP Fit Center  279 is at  -6.109594  0.790800 -1.187939
      ESP Fit Center  280 is at  -5.951888  0.383714 -1.187939
      ESP Fit Center  281 is at  -5.657775  0.061087 -1.187939
      ESP Fit Center  282 is at  -5.266977 -0.133507 -1.187939
      ESP Fit Center  283 is at  -5.361882  1.736545 -1.454923
      ESP Fit Center  284 is at  -5.669343  1.429083 -1.454923
      ESP Fit Center  285 is at  -5.781882  1.009083 -1.454923
      ESP Fit Center  286 is at  -5.669343  0.589083 -1.454923
      ESP Fit Center  287 is at  -5.361882  0.281622 -1.454923
      ESP Fit Center  288 is at  -5.159290  1.385645 -1.622755
      ESP Fit Center  289 is at  -5.376698  1.009083 -1.622755
      ESP Fit Center  290 is at  -5.159290  0.632522 -1.622755
      ESP Fit Center  291 is at  -2.987700  1.683173  3.084760
      ESP Fit Center  292 is at  -3.598960  1.330261  3.084760
      ESP Fit Center  293 is at  -3.191454  1.330261  3.084760
      ESP Fit Center  294 is at  -2.598003  1.683173  2.958139
      ESP Fit Center  295 is at  -4.085606  1.284571  2.958139
      ESP Fit Center  296 is at  -3.793809  0.992774  2.958139
      ESP Fit Center  297 is at  -3.395207  0.885969  2.958139
      ESP Fit Center  298 is at  -2.996605  0.992774  2.958139
      ESP Fit Center  299 is at  -2.704808  1.284571  2.958139
      ESP Fit Center  300 is at  -2.243148  1.683173  2.753264
      ESP Fit Center  301 is at  -4.527650  1.471482  2.753264
      ESP Fit Center  302 is at  -4.374707  1.076692  2.753264
      ESP Fit Center  303 is at  -4.089478  0.763810  2.753264
      ESP Fit Center  304 is at  -3.710483  0.575093  2.753264
      ESP Fit Center  305 is at  -3.288908  0.536028  2.753264
      ESP Fit Center  306 is at  -2.881690  0.651892  2.753264
      ESP Fit Center  307 is at  -2.543825  0.907035  2.753264
      ESP Fit Center  308 is at  -2.320944  1.267001  2.753264
      ESP Fit Center  309 is at  -1.938643  1.683173  2.479086
      ESP Fit Center  310 is at  -1.997644  2.093534  2.479086
      ESP Fit Center  311 is at  -4.851771  1.683173  2.479086
      ESP Fit Center  312 is at  -4.792770  1.272811  2.479086
      ESP Fit Center  313 is at  -4.620546  0.895695  2.479086
      ESP Fit Center  314 is at  -4.349053  0.582375  2.479086
      ESP Fit Center  315 is at  -4.000285  0.358235  2.479086
      ESP Fit Center  316 is at  -3.602498  0.241434  2.479086
      ESP Fit Center  317 is at  -3.187916  0.241434  2.479086
      ESP Fit Center  318 is at  -2.790128  0.358235  2.479086
      ESP Fit Center  319 is at  -2.441361  0.582375  2.479086
      ESP Fit Center  320 is at  -2.169867  0.895695  2.479086
      ESP Fit Center  321 is at  -1.997644  1.272811  2.479086
      ESP Fit Center  322 is at  -1.697797  1.683173  2.147590
      ESP Fit Center  323 is at  -1.751124  2.105301  2.147590
      ESP Fit Center  324 is at  -5.079232  1.470431  2.147590
      ESP Fit Center  325 is at  -4.973419  1.058314  2.147590
      ESP Fit Center  326 is at  -4.768440  0.685460  2.147590
      ESP Fit Center  327 is at  -4.477177  0.375296  2.147590
      ESP Fit Center  328 is at  -4.117929  0.147310  2.147590
      ESP Fit Center  329 is at  -3.713270  0.015829  2.147590
      ESP Fit Center  330 is at  -3.288626 -0.010888  2.147590
      ESP Fit Center  331 is at  -2.870679  0.068840  2.147590
      ESP Fit Center  332 is at  -2.485689  0.250002  2.147590
      ESP Fit Center  333 is at  -2.157849  0.521216  2.147590
      ESP Fit Center  334 is at  -1.907755  0.865439  2.147590
      ESP Fit Center  335 is at  -1.751124  1.261044  2.147590
      ESP Fit Center  336 is at  -1.531136  1.683173  1.773264
      ESP Fit Center  337 is at  -1.577872  2.097967  1.773264
      ESP Fit Center  338 is at  -5.212542  1.268378  1.773264
      ESP Fit Center  339 is at  -5.074677  0.874383  1.773264
      ESP Fit Center  340 is at  -3.810002 -0.134162  1.773264
      ESP Fit Center  341 is at  -3.395207 -0.180898  1.773264
      ESP Fit Center  342 is at  -2.980412 -0.134162  1.773264
      ESP Fit Center  343 is at  -2.586417  0.003703  1.773264
      ESP Fit Center  344 is at  -2.232978  0.225783  1.773264
      ESP Fit Center  345 is at  -1.937818  0.520943  1.773264
      ESP Fit Center  346 is at  -1.715737  0.874383  1.773264
      ESP Fit Center  347 is at  -1.577872  1.268378  1.773264
      ESP Fit Center  348 is at  -1.445944  1.683173  1.372466
      ESP Fit Center  349 is at  -1.491517  2.102206  1.372466
      ESP Fit Center  350 is at  -1.626104  2.501647  1.372466
      ESP Fit Center  351 is at  -2.482156 -0.039025  1.372466
      ESP Fit Center  352 is at  -2.133281  0.197518  1.372466
      ESP Fit Center  353 is at  -1.843412  0.503529  1.372466
      ESP Fit Center  354 is at  -1.626104  0.864698  1.372466
      ESP Fit Center  355 is at  -1.491517  1.264139  1.372466
      ESP Fit Center  356 is at  -1.445944  1.683173  0.962715
      ESP Fit Center  357 is at  -1.491517  2.102206  0.962715
      ESP Fit Center  358 is at  -1.626104  2.501647  0.962715
      ESP Fit Center  359 is at  -2.133281  0.197518  0.962715
      ESP Fit Center  360 is at  -1.843412  0.503529  0.962715
[...]
 6809 Fit      -0.002877
 6810 Fit      -0.001557
 6811 Fit      -0.000803
 6812 Fit      -0.000538
 6813 Fit      -0.000772
 6814 Fit      -0.001632
 6815 Fit      -0.010611
 6816 Fit      -0.006753
 6817 Fit      -0.004110
 6818 Fit      -0.002294
 6819 Fit      -0.001081
 6820 Fit      -0.000337
 6821 Fit       0.000011
 6822 Fit      -0.000027
 6823 Fit      -0.000525
 6824 Fit      -0.012894
 6825 Fit      -0.008565
 6826 Fit      -0.005496
 6827 Fit      -0.003295
 6828 Fit      -0.001720
 6829 Fit      -0.000615
 6830 Fit       0.000124
 6831 Fit       0.000570
 6832 Fit       0.000761
 6833 Fit      -0.012563
 6834 Fit      -0.008604
 6835 Fit      -0.005673
 6836 Fit      -0.003488
 6837 Fit      -0.001862
 6838 Fit      -0.000658
 6839 Fit       0.000222
 6840 Fit       0.000863
 6841 Fit       0.001345
 6842 Fit      -0.012804
 6843 Fit      -0.009026
 6844 Fit      -0.006104
 6845 Fit      -0.003853
 6846 Fit      -0.002126
 6847 Fit      -0.000806
 6848 Fit       0.000205
 6849 Fit       0.001003
 6850 Fit       0.001700
 6851 Fit      -0.011015
 6852 Fit      -0.007927
 6853 Fit      -0.005394
 6854 Fit      -0.003360
 6855 Fit      -0.001751
 6856 Fit      -0.000483
 6857 Fit       0.000531
 6858 Fit       0.001403
 6859 Fit      -0.008974
 6860 Fit      -0.006679
 6861 Fit      -0.004619
 6862 Fit      -0.002864
 6863 Fit      -0.001411
 6864 Fit      -0.000221
 6865 Fit       0.000782
 6866 Fit       0.001725
 6867 Fit      -0.005790
 6868 Fit      -0.004145
 6869 Fit      -0.002583
 6870 Fit      -0.001210
 6871 Fit      -0.000036
 6872 Fit       0.001000
 6873 Fit      -0.002174
 6874 Fit      -0.000966
 6875 Fit       0.000145
 6876 Fit       0.001178
 6877 Fit      -0.000153
 6878 Fit       0.000871
 6879 Fit      -0.001105
 6880 Fit      -0.001552
 6881 Fit      -0.002969
 6882 Fit      -0.005342
 6883 Fit      -0.008651
 6884 Fit      -0.001649
 6885 Fit      -0.001221
 6886 Fit      -0.001553
 6887 Fit      -0.002605
 6888 Fit      -0.004335
 6889 Fit      -0.006663
 6890 Fit      -0.009416
 6891 Fit      -0.012281
 6892 Fit      -0.014833
 6893 Fit      -0.001169
 6894 Fit      -0.000959
 6895 Fit      -0.001289
 6896 Fit      -0.002151
 6897 Fit      -0.003499
 6898 Fit      -0.005230
 6899 Fit      -0.007161
 6900 Fit      -0.009029
 6901 Fit      -0.010527
 6902 Fit      -0.011386
 6903 Fit      -0.011448
 6904 Fit      -0.010708
 6905 Fit      -0.009295
 6906 Fit      -0.001882
 6907 Fit      -0.000506
 6908 Fit      -0.000513
 6909 Fit      -0.000867
 6910 Fit      -0.001589
 6911 Fit      -0.002636
 6912 Fit      -0.003908
 6913 Fit      -0.005241
 6914 Fit      -0.006429
 6915 Fit      -0.007263
 6916 Fit      -0.007589
 6917 Fit      -0.007344
 6918 Fit      -0.006569
 6919 Fit      -0.005376
 6920 Fit      -0.000749
 6921 Fit       0.000198
 6922 Fit      -0.000019
 6923 Fit      -0.000459
 6924 Fit      -0.001159
 6925 Fit      -0.002067
 6926 Fit      -0.003059
 6927 Fit      -0.003960
 6928 Fit      -0.004588
 6929 Fit      -0.004805
 6930 Fit      -0.004559
 6931 Fit      -0.003886
 6932 Fit      -0.002886
 6933 Fit      -0.001680
 6934 Fit       0.000353
 6935 Fit       0.000858
 6936 Fit       0.000452
 6937 Fit      -0.000059
 6938 Fit      -0.000721
 6939 Fit      -0.001468
 6940 Fit      -0.002159
 6941 Fit      -0.002633
 6942 Fit      -0.002764
 6943 Fit      -0.002504
 6944 Fit      -0.001893
 6945 Fit      -0.001023
 6946 Fit       0.000003
 6947 Fit       0.001407
 6948 Fit       0.000828
 6949 Fit       0.000246
 6950 Fit      -0.000371
 6951 Fit      -0.000911
 6952 Fit      -0.001213
 6953 Fit      -0.001160
 6954 Fit      -0.000737
 6955 Fit      -0.000018
 6956 Fit       0.000889
 6957 Fit       0.001791
 6958 Fit       0.001048
 6959 Fit       0.000434
 6960 Fit       0.000021
 6961 Fit       0.000003
 6962 Fit       0.000453
 6963 Fit       0.001283
 6964 Fit       0.001962
 6965 Fit       0.001159
 6966 Fit       0.000978
 6967 Fit       0.001652
 6968 Fit       0.001905
 6969 Fit       0.012545
 6970 Fit       0.015888
 6971 Fit       0.012057
 6972 Fit       0.015375
 6973 Fit       0.019397
 6974 Fit       0.009546
 6975 Fit       0.011327
 6976 Fit       0.014522
 6977 Fit       0.018628
 6978 Fit       0.006944
 6979 Fit       0.008843
 6980 Fit       0.010466
 6981 Fit       0.013226
 6982 Fit       0.016731
 6983 Fit       0.004732
 6984 Fit       0.006306
 6985 Fit       0.008205
 6986 Fit       0.015062
 6987 Fit       0.002236
 6988 Fit       0.003788
 6989 Fit      -0.002040
 6990 Fit      -0.000542
 6991 Fit       0.001185
 6992 Fit      -0.004569
 6993 Fit      -0.006127
 6994 Fit      -0.004212
 6995 Fit      -0.002082
 6996 Fit      -0.004648
 6997 Fit      -0.002459
 6998 Fit      -0.009110
 6999 Fit      -0.006314
 7000 Fit      -0.003503
 7001 Fit      -0.004900
 7002 Fit      -0.001671
 7003 Fit       0.008879
 7004 Fit       0.011315
 7005 Fit       0.007020
 7006 Fit       0.007688
 7007 Fit       0.009589
 7008 Fit       0.012098
 7009 Fit       0.015768
 7010 Fit       0.003245
 7011 Fit       0.004611
 7012 Fit       0.006081
 7013 Fit       0.006634
 7014 Fit       0.008162
 7015 Fit       0.010020
 7016 Fit       0.012575
 7017 Fit       0.016490
 7018 Fit       0.000777
 7019 Fit       0.002320
 7020 Fit       0.003805
 7021 Fit       0.005223
 7022 Fit       0.005676
 7023 Fit       0.006888
 7024 Fit       0.008223
 7025 Fit       0.009890
 7026 Fit       0.012243
 7027 Fit      -0.002008
 7028 Fit      -0.000078
 7029 Fit       0.001631
 7030 Fit       0.003127
 7031 Fit       0.004454
 7032 Fit       0.004772
 7033 Fit       0.005789
 7034 Fit       0.006794
 7035 Fit       0.007923
 7036 Fit       0.009381
 7037 Fit       0.011524
 7038 Fit      -0.006432
 7039 Fit      -0.003550
 7040 Fit      -0.001179
 7041 Fit       0.000753
 7042 Fit       0.002334
 7043 Fit       0.003648
 7044 Fit       0.003889
 7045 Fit       0.004734
 7046 Fit       0.005460
 7047 Fit       0.006141
 7048 Fit       0.006865
 7049 Fit       0.007755
 7050 Fit      -0.008439
 7051 Fit      -0.004867
 7052 Fit      -0.002149
 7053 Fit      -0.000058
 7054 Fit       0.001573
 7055 Fit       0.002859
 7056 Fit       0.003002
 7057 Fit       0.003722
 7058 Fit       0.004235
 7059 Fit       0.004576
 7060 Fit       0.004760
 7061 Fit       0.004768
 7062 Fit       0.004516
 7063 Fit      -0.006466
 7064 Fit      -0.003309
 7065 Fit      -0.000996
 7066 Fit       0.000730
 7067 Fit       0.002028
 7068 Fit       0.002099
 7069 Fit       0.002743
 7070 Fit       0.003084
 7071 Fit       0.003130
 7072 Fit       0.002833
 7073 Fit       0.002060
 7074 Fit      -0.009179
 7075 Fit      -0.005096
 7076 Fit      -0.002287
 7077 Fit      -0.000302
 7078 Fit       0.001112
 7079 Fit       0.001183
 7080 Fit       0.001774
 7081 Fit       0.001955
 7082 Fit       0.001703
 7083 Fit       0.000908
 7084 Fit      -0.000692
 7085 Fit      -0.007466
 7086 Fit      -0.003865
 7087 Fit      -0.001471
 7088 Fit       0.000138
 7089 Fit       0.000274
 7090 Fit       0.000826
 7091 Fit       0.000867
 7092 Fit       0.000354
 7093 Fit      -0.000869
 7094 Fit      -0.003146
 7095 Fit      -0.005506
 7096 Fit      -0.002658
 7097 Fit      -0.000837
 7098 Fit      -0.000577
 7099 Fit      -0.000032
 7100 Fit      -0.000163
 7101 Fit      -0.001037
 7102 Fit      -0.002881
 7103 Fit      -0.004145
 7104 Fit      -0.001867
 7105 Fit      -0.001278
 7106 Fit      -0.000729
 7107 Fit      -0.001003
 7108 Fit      -0.002157
 7109 Fit      -0.002760
 7110 Fit      -0.001668
 7111 Fit      -0.001089
 7112 Fit       0.007790
 7113 Fit       0.008342
 7114 Fit       0.009850
 7115 Fit       0.008907
 7116 Fit       0.007002
 7117 Fit       0.006181
 7118 Fit       0.006648
 7119 Fit       0.008650
 7120 Fit       0.010961
 7121 Fit       0.012642
 7122 Fit       0.012295
 7123 Fit       0.010006
 7124 Fit       0.007554
 7125 Fit       0.005993
 7126 Fit       0.005189
 7127 Fit       0.004826
 7128 Fit       0.004861
 7129 Fit       0.005442
 7130 Fit       0.006705
 7131 Fit       0.008715
 7132 Fit       0.011337
 7133 Fit       0.014245
 7134 Fit       0.016942
 7135 Fit       0.014671
 7136 Fit       0.011027
 7137 Fit       0.007843
 7138 Fit       0.005841
 7139 Fit       0.004786
 7140 Fit       0.004224
 7141 Fit       0.003856
 7142 Fit       0.003583
 7143 Fit       0.003453
 7144 Fit       0.003588
 7145 Fit       0.004114
 7146 Fit       0.005114
 7147 Fit       0.006636
 7148 Fit       0.008551
 7149 Fit       0.010110
 7150 Fit       0.006451
 7151 Fit       0.004506
 7152 Fit       0.003637
 7153 Fit       0.003263
 7154 Fit       0.003025
 7155 Fit       0.002762
 7156 Fit       0.002448
 7157 Fit       0.002147
 7158 Fit       0.001972
 7159 Fit       0.002048
 7160 Fit       0.002476
 7161 Fit       0.003313
 7162 Fit       0.004582
 7163 Fit       0.006306
 7164 Fit       0.003085
 7165 Fit       0.002095
 7166 Fit       0.001915
 7167 Fit       0.001969
 7168 Fit       0.001970
 7169 Fit       0.001803
 7170 Fit       0.001461
 7171 Fit       0.001004
 7172 Fit       0.000542
 7173 Fit       0.000210
 7174 Fit       0.000143
 7175 Fit       0.000442
 7176 Fit       0.001158
 7177 Fit       0.002293
 7178 Fit       0.003828
 7179 Fit      -0.000791
 7180 Fit      -0.000481
 7181 Fit       0.000139
 7182 Fit       0.000660
 7183 Fit       0.000918
 7184 Fit       0.000863
 7185 Fit       0.000514
 7186 Fit      -0.000067
 7187 Fit      -0.000776
 7188 Fit      -0.001479
 7189 Fit      -0.002022
 7190 Fit      -0.002260
 7191 Fit      -0.002081
 7192 Fit      -0.001436
 7193 Fit      -0.000339
 7194 Fit       0.001157
 7195 Fit      -0.003142
 7196 Fit      -0.001589
 7197 Fit      -0.000545
 7198 Fit      -0.000039
 7199 Fit      -0.000042
 7200 Fit      -0.000497
 7201 Fit      -0.001322
 7202 Fit      -0.002399
 7203 Fit      -0.003562
 7204 Fit      -0.004610
 7205 Fit      -0.005330
 7206 Fit      -0.005538
 7207 Fit      -0.005123
 7208 Fit      -0.004080
 7209 Fit      -0.003058
 7210 Fit      -0.001502
 7211 Fit      -0.000786
 7212 Fit      -0.000790
 7213 Fit      -0.001422
 7214 Fit      -0.002594
 7215 Fit      -0.004192
 7216 Fit      -0.006032
 7217 Fit      -0.007856
 7218 Fit      -0.009324
 7219 Fit      -0.001415
 7220 Fit      -0.001095
 7221 Fit      -0.001679
 7222 Fit      -0.003083
 7223 Fit      -0.005244
 7224 Fit       0.006974
 7225 Fit       0.003662
 7226 Fit       0.002362
 7227 Fit       0.002309
 7228 Fit      -0.000538
 7229 Fit      -0.001864
 7230 Fit      -0.002156
 7231 Fit      -0.001468
 7232 Fit      -0.000877
 7233 Fit      -0.003439
 7234 Fit      -0.005178
 7235 Fit      -0.006027
 7236 Fit      -0.005973
 7237 Fit      -0.005067
 7238 Fit      -0.003408
 7239 Fit      -0.000487
 7240 Fit      -0.003545
 7241 Fit      -0.006081
 7242 Fit      -0.007982
 7243 Fit      -0.009162
 7244 Fit      -0.009565
 7245 Fit      -0.009181
 7246 Fit      -0.008054
 7247 Fit      -0.006283
 7248 Fit      -0.001561
 7249 Fit      -0.004522
 7250 Fit      -0.007171
 7251 Fit      -0.009391
 7252 Fit      -0.011077
 7253 Fit      -0.012140
 7254 Fit      -0.012513
 7255 Fit      -0.012162
 7256 Fit      -0.011097
 7257 Fit      -0.009385
 7258 Fit      -0.002118
 7259 Fit      -0.004880
 7260 Fit      -0.007526
 7261 Fit      -0.009935
 7262 Fit      -0.011989
 7263 Fit      -0.013577
 7264 Fit      -0.014596
 7265 Fit      -0.014963
 7266 Fit      -0.014616
 7267 Fit      -0.013531
 7268 Fit      -0.011736
 7269 Fit      -0.009333
 7270 Fit       0.006986
 7271 Fit      -0.001308
 7272 Fit      -0.003472
 7273 Fit      -0.005770
 7274 Fit      -0.008106
 7275 Fit      -0.010378
 7276 Fit      -0.012475
 7277 Fit      -0.014288
 7278 Fit      -0.015707
 7279 Fit      -0.016624
 7280 Fit      -0.016944
 7281 Fit      -0.016585
 7282 Fit      -0.015489
 7283 Fit      -0.013635
 7284 Fit       0.002666
 7285 Fit       0.001805
 7286 Fit       0.001025
 7287 Fit       0.000238
 7288 Fit      -0.000638
 7289 Fit      -0.001673
 7290 Fit      -0.002910
 7291 Fit      -0.004367
 7292 Fit      -0.006029
 7293 Fit      -0.007855
 7294 Fit      -0.009786
 7295 Fit      -0.011741
 7296 Fit      -0.013630
 7297 Fit      -0.015352
 7298 Fit      -0.016799
 7299 Fit      -0.017861
 7300 Fit      -0.018428
 7301 Fit      -0.018396
 7302 Fit      -0.017670
 7303 Fit      -0.016170
 7304 Fit      -0.013830
 7305 Fit      -0.001205
 7306 Fit      -0.002385
 7307 Fit      -0.003436
 7308 Fit      -0.004430
 7309 Fit      -0.005436
 7310 Fit      -0.006516
 7311 Fit      -0.007714
 7312 Fit      -0.009052
 7313 Fit      -0.010525
 7314 Fit      -0.012102
 7315 Fit      -0.013730
 7316 Fit      -0.015336
 7317 Fit      -0.016832
 7318 Fit      -0.018116
 7319 Fit      -0.019076
 7320 Fit      -0.019596
 7321 Fit      -0.019559
 7322 Fit      -0.018852
 7323 Fit      -0.017359
 7324 Fit      -0.004493
 7325 Fit      -0.005922
 7326 Fit      -0.007192
 7327 Fit      -0.008354
 7328 Fit      -0.009462
 7329 Fit      -0.010570
 7330 Fit      -0.011722
 7331 Fit      -0.012939
 7332 Fit      -0.014221
 7333 Fit      -0.015544
 7334 Fit      -0.016860
 7335 Fit      -0.018099
 7336 Fit      -0.019175
 7337 Fit      -0.019987
 7338 Fit      -0.020421
 7339 Fit      -0.020360
 7340 Fit      -0.019682
 7341 Fit      -0.018258
 7342 Fit      -0.007293
 7343 Fit      -0.008972
 7344 Fit      -0.010455
 7345 Fit      -0.011783
 7346 Fit      -0.013005
 7347 Fit      -0.014174
 7348 Fit      -0.015327
 7349 Fit      -0.016479
 7350 Fit      -0.017618
 7351 Fit      -0.018706
 7352 Fit      -0.019674
 7353 Fit      -0.020433
 7354 Fit      -0.020872
 7355 Fit      -0.020867
 7356 Fit      -0.020283
 7357 Fit      -0.018978
 7358 Fit      -0.016788
 7359 Fit      -0.009541
 7360 Fit      -0.011475
 7361 Fit      -0.013154
 7362 Fit      -0.014618
 7363 Fit      -0.015920
 7364 Fit      -0.017107
 7365 Fit      -0.018204
 7366 Fit      -0.019206
 7367 Fit      -0.020068
 7368 Fit      -0.020715
 7369 Fit      -0.021036
 7370 Fit      -0.020897
 7371 Fit      -0.020150
 7372 Fit      -0.018631
 7373 Fit      -0.008606
 7374 Fit      -0.011127
 7375 Fit      -0.013287
 7376 Fit      -0.015107
 7377 Fit      -0.016635
 7378 Fit      -0.017923
 7379 Fit      -0.019002
 7380 Fit      -0.019871
 7381 Fit      -0.020480
 7382 Fit      -0.020739
 7383 Fit      -0.020517
 7384 Fit      -0.019658
 7385 Fit      -0.017996
 7386 Fit      -0.012239
 7387 Fit      -0.014613
 7388 Fit      -0.016496
 7389 Fit      -0.017952
 7390 Fit      -0.019017
 7391 Fit      -0.019674
 7392 Fit      -0.019846
 7393 Fit      -0.019396
 7394 Fit      -0.018151
 7395 Fit      -0.015527
 7396 Fit      -0.017174
 7397 Fit      -0.018050
 7398 Fit      -0.018083
 7399 Fit      -0.017103
 7400 Fit       0.018849
 7401 Fit       0.020062
 7402 Fit       0.019634
 7403 Fit       0.018199
 7404 Fit       0.017107
 7405 Fit       0.017683
 7406 Fit       0.019187
 7407 Fit       0.020777
 7408 Fit       0.020696
 7409 Fit       0.020013
 7410 Fit       0.018789
 7411 Fit       0.017217
 7412 Fit       0.015695
 7413 Fit       0.014793
 7414 Fit       0.014973
 7415 Fit       0.016174
 7416 Fit       0.017781
 7417 Fit       0.019222
 7418 Fit       0.020262
 7419 Fit       0.021016
 7420 Fit       0.021025
 7421 Fit       0.020676
 7422 Fit       0.019966
 7423 Fit       0.018897
 7424 Fit       0.017503
 7425 Fit       0.015879
 7426 Fit       0.014200
 7427 Fit       0.012745
 7428 Fit       0.011856
 7429 Fit       0.011837
 7430 Fit       0.012769
 7431 Fit       0.014390
 7432 Fit       0.018951
 7433 Fit       0.019948
 7434 Fit       0.020653
 7435 Fit       0.020797
 7436 Fit       0.020817
 7437 Fit       0.020584
 7438 Fit       0.020092
 7439 Fit       0.019325
 7440 Fit       0.018271
 7441 Fit       0.016932
 7442 Fit       0.015334
 7443 Fit       0.013546
 7444 Fit       0.011692
 7445 Fit       0.009970
 7446 Fit       0.008650
 7447 Fit       0.008030
 7448 Fit       0.008345
 7449 Fit       0.009644
 7450 Fit       0.019956
 7451 Fit       0.020514
 7452 Fit       0.020126
 7453 Fit       0.020120
 7454 Fit       0.019920
 7455 Fit       0.019521
 7456 Fit       0.018905
 7457 Fit       0.018050
 7458 Fit       0.016936
 7459 Fit       0.015552
 7460 Fit       0.013903
 7461 Fit       0.012019
 7462 Fit       0.009967
 7463 Fit       0.007869
 7464 Fit       0.005916
 7465 Fit       0.004375
 7466 Fit       0.019920
 7467 Fit       0.019005
 7468 Fit       0.018941
 7469 Fit       0.018738
 7470 Fit       0.018392
 7471 Fit       0.017882
 7472 Fit       0.017184
 7473 Fit       0.016271
 7474 Fit       0.015120
 7475 Fit       0.013715
 7476 Fit       0.012047
 7477 Fit       0.010122
 7478 Fit       0.007970
 7479 Fit       0.005656
 7480 Fit       0.003298
 7481 Fit       0.018912
 7482 Fit       0.017422
 7483 Fit       0.017251
 7484 Fit       0.016992
 7485 Fit       0.016626
 7486 Fit       0.016126
 7487 Fit       0.015458
 7488 Fit       0.014589
 7489 Fit       0.013490
 7490 Fit       0.012132
 7491 Fit       0.010495
 7492 Fit       0.008563
 7493 Fit       0.006336
 7494 Fit       0.003835
 7495 Fit       0.001122
 7496 Fit       0.015346
 7497 Fit       0.015023
 7498 Fit       0.014682
 7499 Fit       0.014283
 7500 Fit       0.013784
 7501 Fit       0.013143
 7502 Fit       0.012321
 7503 Fit       0.011283
 7504 Fit       0.009995
 7505 Fit       0.008427
 7506 Fit       0.006551
 7507 Fit       0.004346
 7508 Fit       0.001804
 7509 Fit       0.012185
 7510 Fit       0.011733
 7511 Fit       0.011271
 7512 Fit       0.010739
 7513 Fit       0.010081
 7514 Fit       0.009252
 7515 Fit       0.008207
 7516 Fit       0.006907
 7517 Fit       0.005313
 7518 Fit       0.003390
 7519 Fit       0.001102
 7520 Fit       0.008622
 7521 Fit       0.008024
 7522 Fit       0.007462
 7523 Fit       0.006842
 7524 Fit       0.006089
 7525 Fit       0.005140
 7526 Fit       0.003937
 7527 Fit       0.002429
 7528 Fit       0.000564
 -----------------------------------------------------------------
 Leave Link  602 at Mon May  1 18:07:00 2017, MaxMem=   33554432 cpu:       2.0

 Test job not archived.
 1\1\GINC-N0287\FOpt\RHF\6-31G(d)\C7H16O4\JSMITH07\01-May-2017\0\\#HF/6
 -31G* SCF=tight Test Pop=MK iop(6/33=2) NoSymm iop(6/42=6) opt\\remark
  line goes here\\0,1\C,-3.874281017,1.1040081576,0.0491172121\H,-3.475
 4422687,0.1016861099,0.1219820982\H,-3.5170615347,1.5598648977,-0.8722
 045261\H,-4.9604043399,1.0495983136,0.0088929253\O,-3.4414331214,1.811
 1187101,1.1676956649\C,-3.8799517237,3.1335449384,1.2151005872\H,-4.96
 69546332,3.1840899551,1.2254687017\H,-3.5299569825,3.69200377,0.349152
 9211\C,-3.3281420076,3.7555461155,2.4804789074\H,-2.2417435765,3.70630
 23492,2.4700019739\H,-3.678723283,3.1984927204,3.3462620096\O,-3.76676
 408,5.0795881519,2.5284928761\C,-3.3387723925,5.7969673829,3.645965706
 6\H,-2.2527540079,5.8394544477,3.688009796\H,-3.6896556793,5.331667357
 2,4.5643265216\C,-3.9013334543,7.1985934163,3.5357192442\H,-3.55044322
 64,7.6639018814,2.6174087672\H,-4.987316466,7.1561138712,3.4936859831\
 O,-3.4732966607,7.9159555677,4.6532946555\C,-3.9117377418,9.2400136304
 ,4.7014884062\H,-4.9981635938,9.2900759835,4.7124585627\H,-3.561077696
 2,9.7978395341,3.8361472916\C,-3.3607816787,9.863143019,5.9660784578\H
 ,-2.275580785,9.8089170149,5.9502135353\H,-3.7130539981,9.3010180434,6
 .8267600676\O,-3.8089571699,11.1918074472,6.0009741039\H,-3.4842774513
 ,11.6184878435,6.7806395191\\Version=EM64L-G09RevA.02\HF=-573.7817702\
 RMSD=6.787e-09\RMSF=3.597e-05\Dipole=0.0791809,-0.0697718,0.0898493\Qu
 adrupole=-3.612756,-3.8991776,7.5119336,6.2894788,2.333413,8.6219616\P
 G=C01 [X(C7H16O4)]\\@


 I SUPPOSE A BABY LLAMA HAS A MMAMA AND A PPOPA.
     -- RICHARD AMOUR
 Job cpu time:  0 days  0 hours  3 minutes 57.1 seconds.
 File lengths (MBytes):  RWF=    162 Int=      0 D2E=      0 Chk=      6 Scr=      4
 Normal termination of Gaussian 09 at Mon May  1 18:07:00 2017.
