 Entering Gaussian System, Link 0=g09
 Input=PEG.com
 Output=PEG.log
 Initial command:
 /gscratch/pfaendtner/codes/G09/g09/l1.exe /gscratch/pfaendtner/josh/gaussian/Gau-22455.inp -scrdir=/gscratch/pfaendtner/josh/gaussian/
 Entering Link 1 = /gscratch/pfaendtner/codes/G09/g09/l1.exe PID=     22460.
  
 Copyright (c) 1988,1990,1992,1993,1995,1998,2003,2009, Gaussian, Inc.
                  All Rights Reserved.
  
 This is part of the Gaussian(R) 09 program.  It is based on
 the Gaussian(R) 03 system (copyright 2003, Gaussian, Inc.),
 the Gaussian(R) 98 system (copyright 1998, Gaussian, Inc.),
 the Gaussian(R) 94 system (copyright 1995, Gaussian, Inc.),
 the Gaussian 92(TM) system (copyright 1992, Gaussian, Inc.),
 the Gaussian 90(TM) system (copyright 1990, Gaussian, Inc.),
 the Gaussian 88(TM) system (copyright 1988, Gaussian, Inc.),
 the Gaussian 86(TM) system (copyright 1986, Carnegie Mellon
 University), and the Gaussian 82(TM) system (copyright 1983,
 Carnegie Mellon University). Gaussian is a federally registered
 trademark of Gaussian, Inc.
  
 This software contains proprietary and confidential information,
 including trade secrets, belonging to Gaussian, Inc.
  
 This software is provided under written license and may be
 used, copied, transmitted, or stored only in accord with that
 written license.
  
 The following legend is applicable only to US Government
 contracts under FAR:
  
                    RESTRICTED RIGHTS LEGEND
  
 Use, reproduction and disclosure by the US Government is
 subject to restrictions as set forth in subparagraphs (a)
 and (c) of the Commercial Computer Software - Restricted
 Rights clause in FAR 52.227-19.
  
 Gaussian, Inc.
 340 Quinnipiac St., Bldg. 40, Wallingford CT 06492
  
  
 ---------------------------------------------------------------
 Warning -- This program may not be used in any manner that
 competes with the business of Gaussian, Inc. or will provide
 assistance to any competitor of Gaussian, Inc.  The licensee
 of this program is prohibited from giving any competitor of
 Gaussian, Inc. access to this program.  By using this program,
 the user acknowledges that Gaussian, Inc. is engaged in the
 business of creating and licensing software in the field of
 computational chemistry and represents and warrants to the
 licensee that it is not a competitor of Gaussian, Inc. and that
 it will not use this program in any manner prohibited above.
 ---------------------------------------------------------------
  

 Cite this work as:
 Gaussian 09, Revision A.02,
 M. J. Frisch, G. W. Trucks, H. B. Schlegel, G. E. Scuseria, 
 M. A. Robb, J. R. Cheeseman, G. Scalmani, V. Barone, B. Mennucci, 
 G. A. Petersson, H. Nakatsuji, M. Caricato, X. Li, H. P. Hratchian, 
 A. F. Izmaylov, J. Bloino, G. Zheng, J. L. Sonnenberg, M. Hada, 
 M. Ehara, K. Toyota, R. Fukuda, J. Hasegawa, M. Ishida, T. Nakajima, 
 Y. Honda, O. Kitao, H. Nakai, T. Vreven, J. A. Montgomery, Jr., 
 J. E. Peralta, F. Ogliaro, M. Bearpark, J. J. Heyd, E. Brothers, 
 K. N. Kudin, V. N. Staroverov, R. Kobayashi, J. Normand, 
 K. Raghavachari, A. Rendell, J. C. Burant, S. S. Iyengar, J. Tomasi, 
 M. Cossi, N. Rega, J. M. Millam, M. Klene, J. E. Knox, J. B. Cross, 
 V. Bakken, C. Adamo, J. Jaramillo, R. Gomperts, R. E. Stratmann, 
 O. Yazyev, A. J. Austin, R. Cammi, C. Pomelli, J. W. Ochterski, 
 R. L. Martin, K. Morokuma, V. G. Zakrzewski, G. A. Voth, 
 P. Salvador, J. J. Dannenberg, S. Dapprich, A. D. Daniels, 
 O. Farkas, J. B. Foresman, J. V. Ortiz, J. Cioslowski, 
 and D. J. Fox, Gaussian, Inc., Wallingford CT, 2009.
 
 ******************************************
 Gaussian 09:  EM64L-G09RevA.02 11-Jun-2009
                 1-May-2017 
 ******************************************
 %chk=molecule
 -------------------------------------------------------------------
 #HF/6-31G* SCF=tight Test Pop=MK iop(6/33=2) NoSymm iop(6/42=6) opt
 -------------------------------------------------------------------
 1/18=20,19=15,38=1/1,3;
 2/9=110,12=2,15=1,17=6,18=5,40=1/2;
 3/5=1,6=6,7=1,11=9,16=1,25=1,30=1,71=1/1,2,3;
 4//1;
 5/5=2,32=2,38=5/2;
 6/7=2,8=2,9=2,10=2,15=8,20=1,28=1,33=2,42=6/1,2;
 7/30=1/1,2,3,16;
 1/18=20,19=15/3(2);
 2/9=110,15=1/2;
 99//99;
 2/9=110,15=1/2;
 3/5=1,6=6,7=1,11=9,16=1,25=1,30=1,71=1/1,2,3;
 4/5=5,16=3/1;
 5/5=2,32=2,38=5/2;
 7/30=1/1,2,3,16;
 1/18=20,19=15/3(-5);
 2/9=110,15=1/2;
 6/7=2,8=2,9=2,10=2,15=8,19=2,20=1,28=1,33=2,42=6/1,2;
 99/9=1/99;
 ---------------------
 remark line goes here
 ---------------------
 Symbolic Z-matrix:
 Charge =  0 Multiplicity = 1
 C                    -3.87097   1.00979  -0.00036 
 H                    -3.51456   0.00089  -0.00058 
 H                    -3.51282   1.51476  -0.87307 
 H                    -4.94097   1.01006  -0.00202 
 O                    -3.39594   1.68288   1.16848 
 C                    -3.87227   3.03122   1.16877 
 H                    -4.94227   3.03149   1.16711 
 H                    -3.51412   3.5362    0.29606 
 C                    -3.3607    3.75609   2.42752 
 H                    -2.2907    3.75582   2.42918 
 H                    -3.71885   3.25111   3.30023 
 O                    -3.83703   5.10443   2.42781 
 C                    -3.362     5.77753   3.59665 
 H                    -2.292     5.77726   3.59831 
 H                    -3.72015   5.27255   4.46937 
 C                    -3.87497   7.22958   3.59697 
 H                    -3.51682   7.73456   2.72425 
 H                    -4.94496   7.22985   3.59531 
 O                    -3.39994   7.90268   4.76581 
 C                    -3.87627   9.25102   4.7661 
 H                    -4.94626   9.25129   4.76444 
 H                    -3.51812   9.756     3.89339 
 C                    -3.3647    9.97589   6.02485 
 H                    -2.2947    9.97562   6.02651 
 H                    -3.72285   9.47091   6.89756 
 O                    -3.84102   11.32423   6.02514 
 C                    -3.366     11.99732   7.19398 
 H                    -2.296     11.99705   7.19564 
 H                    -3.72414   11.49234   8.0667 
 C                    -3.87897   13.44938   7.1943 
 H                    -3.52066   13.95463   6.32181 
 H                    -4.94897   13.44991   7.1926 
 O                    -3.40382   14.12187   8.36344 
 H                    -3.7231    15.02722   8.36439 
 

 GradGradGradGradGradGradGradGradGradGradGradGradGradGradGradGradGradGrad
 Berny optimization.
 Initialization pass.
                           ----------------------------
                           !    Initial Parameters    !
                           ! (Angstroms and Degrees)  !
 --------------------------                            --------------------------
 ! Name  Definition              Value          Derivative Info.                !
 --------------------------------------------------------------------------------
 ! R1    R(1,2)                  1.07           estimate D2E/DX2                !
 ! R2    R(1,3)                  1.07           estimate D2E/DX2                !
 ! R3    R(1,4)                  1.07           estimate D2E/DX2                !
 ! R4    R(1,5)                  1.43           estimate D2E/DX2                !
 ! R5    R(5,6)                  1.43           estimate D2E/DX2                !
 ! R6    R(6,7)                  1.07           estimate D2E/DX2                !
 ! R7    R(6,8)                  1.07           estimate D2E/DX2                !
 ! R8    R(6,9)                  1.54           estimate D2E/DX2                !
 ! R9    R(9,10)                 1.07           estimate D2E/DX2                !
 ! R10   R(9,11)                 1.07           estimate D2E/DX2                !
 ! R11   R(9,12)                 1.43           estimate D2E/DX2                !
 ! R12   R(12,13)                1.43           estimate D2E/DX2                !
 ! R13   R(13,14)                1.07           estimate D2E/DX2                !
 ! R14   R(13,15)                1.07           estimate D2E/DX2                !
 ! R15   R(13,16)                1.54           estimate D2E/DX2                !
 ! R16   R(16,17)                1.07           estimate D2E/DX2                !
 ! R17   R(16,18)                1.07           estimate D2E/DX2                !
 ! R18   R(16,19)                1.43           estimate D2E/DX2                !
 ! R19   R(19,20)                1.43           estimate D2E/DX2                !
 ! R20   R(20,21)                1.07           estimate D2E/DX2                !
 ! R21   R(20,22)                1.07           estimate D2E/DX2                !
 ! R22   R(20,23)                1.54           estimate D2E/DX2                !
 ! R23   R(23,24)                1.07           estimate D2E/DX2                !
 ! R24   R(23,25)                1.07           estimate D2E/DX2                !
 ! R25   R(23,26)                1.43           estimate D2E/DX2                !
 ! R26   R(26,27)                1.43           estimate D2E/DX2                !
 ! R27   R(27,28)                1.07           estimate D2E/DX2                !
 ! R28   R(27,29)                1.07           estimate D2E/DX2                !
 ! R29   R(27,30)                1.54           estimate D2E/DX2                !
 ! R30   R(30,31)                1.07           estimate D2E/DX2                !
 ! R31   R(30,32)                1.07           estimate D2E/DX2                !
 ! R32   R(30,33)                1.43           estimate D2E/DX2                !
 ! R33   R(33,34)                0.96           estimate D2E/DX2                !
 ! A1    A(2,1,3)              109.4712         estimate D2E/DX2                !
 ! A2    A(2,1,4)              109.4712         estimate D2E/DX2                !
 ! A3    A(2,1,5)              109.4712         estimate D2E/DX2                !
 ! A4    A(3,1,4)              109.4712         estimate D2E/DX2                !
 ! A5    A(3,1,5)              109.4712         estimate D2E/DX2                !
 ! A6    A(4,1,5)              109.4712         estimate D2E/DX2                !
 ! A7    A(1,5,6)              109.4712         estimate D2E/DX2                !
 ! A8    A(5,6,7)              109.4712         estimate D2E/DX2                !
 ! A9    A(5,6,8)              109.4712         estimate D2E/DX2                !
 ! A10   A(5,6,9)              109.4712         estimate D2E/DX2                !
 ! A11   A(7,6,8)              109.4712         estimate D2E/DX2                !
 ! A12   A(7,6,9)              109.4712         estimate D2E/DX2                !
 ! A13   A(8,6,9)              109.4712         estimate D2E/DX2                !
 ! A14   A(6,9,10)             109.4712         estimate D2E/DX2                !
 ! A15   A(6,9,11)             109.4712         estimate D2E/DX2                !
 ! A16   A(6,9,12)             109.4712         estimate D2E/DX2                !
 ! A17   A(10,9,11)            109.4712         estimate D2E/DX2                !
 ! A18   A(10,9,12)            109.4712         estimate D2E/DX2                !
 ! A19   A(11,9,12)            109.4712         estimate D2E/DX2                !
 ! A20   A(9,12,13)            109.4712         estimate D2E/DX2                !
 ! A21   A(12,13,14)           109.4712         estimate D2E/DX2                !
 ! A22   A(12,13,15)           109.4712         estimate D2E/DX2                !
 ! A23   A(12,13,16)           109.4712         estimate D2E/DX2                !
 ! A24   A(14,13,15)           109.4712         estimate D2E/DX2                !
 ! A25   A(14,13,16)           109.4712         estimate D2E/DX2                !
 ! A26   A(15,13,16)           109.4712         estimate D2E/DX2                !
 ! A27   A(13,16,17)           109.4712         estimate D2E/DX2                !
 ! A28   A(13,16,18)           109.4712         estimate D2E/DX2                !
 ! A29   A(13,16,19)           109.4712         estimate D2E/DX2                !
 ! A30   A(17,16,18)           109.4712         estimate D2E/DX2                !
 ! A31   A(17,16,19)           109.4712         estimate D2E/DX2                !
 ! A32   A(18,16,19)           109.4712         estimate D2E/DX2                !
 ! A33   A(16,19,20)           109.4712         estimate D2E/DX2                !
 ! A34   A(19,20,21)           109.4712         estimate D2E/DX2                !
 ! A35   A(19,20,22)           109.4712         estimate D2E/DX2                !
 ! A36   A(19,20,23)           109.4712         estimate D2E/DX2                !
 ! A37   A(21,20,22)           109.4712         estimate D2E/DX2                !
 ! A38   A(21,20,23)           109.4712         estimate D2E/DX2                !
 ! A39   A(22,20,23)           109.4712         estimate D2E/DX2                !
 ! A40   A(20,23,24)           109.4712         estimate D2E/DX2                !
 ! A41   A(20,23,25)           109.4712         estimate D2E/DX2                !
 ! A42   A(20,23,26)           109.4712         estimate D2E/DX2                !
 ! A43   A(24,23,25)           109.4712         estimate D2E/DX2                !
 ! A44   A(24,23,26)           109.4712         estimate D2E/DX2                !
 ! A45   A(25,23,26)           109.4712         estimate D2E/DX2                !
 ! A46   A(23,26,27)           109.4712         estimate D2E/DX2                !
 ! A47   A(26,27,28)           109.4712         estimate D2E/DX2                !
 ! A48   A(26,27,29)           109.4712         estimate D2E/DX2                !
 ! A49   A(26,27,30)           109.4712         estimate D2E/DX2                !
 ! A50   A(28,27,29)           109.4712         estimate D2E/DX2                !
 ! A51   A(28,27,30)           109.4713         estimate D2E/DX2                !
 ! A52   A(29,27,30)           109.4712         estimate D2E/DX2                !
 ! A53   A(27,30,31)           109.483          estimate D2E/DX2                !
 ! A54   A(27,30,32)           109.4854         estimate D2E/DX2                !
 ! A55   A(27,30,33)           109.4452         estimate D2E/DX2                !
 ! A56   A(31,30,32)           109.4713         estimate D2E/DX2                !
 ! A57   A(31,30,33)           109.4712         estimate D2E/DX2                !
 ! A58   A(32,30,33)           109.4712         estimate D2E/DX2                !
 ! A59   A(30,33,34)           109.5            estimate D2E/DX2                !
 ! D1    D(2,1,5,6)            180.0            estimate D2E/DX2                !
 ! D2    D(3,1,5,6)             60.0            estimate D2E/DX2                !
 ! D3    D(4,1,5,6)            -60.0            estimate D2E/DX2                !
 ! D4    D(1,5,6,7)             60.0            estimate D2E/DX2                !
 ! D5    D(1,5,6,8)            -60.0            estimate D2E/DX2                !
 ! D6    D(1,5,6,9)            180.0            estimate D2E/DX2                !
 ! D7    D(5,6,9,10)            60.0            estimate D2E/DX2                !
 ! D8    D(5,6,9,11)           -60.0            estimate D2E/DX2                !
 ! D9    D(5,6,9,12)          -180.0            estimate D2E/DX2                !
 ! D10   D(7,6,9,10)           180.0            estimate D2E/DX2                !
 ! D11   D(7,6,9,11)            60.0            estimate D2E/DX2                !
 ! D12   D(7,6,9,12)           -60.0            estimate D2E/DX2                !
 ! D13   D(8,6,9,10)           -60.0            estimate D2E/DX2                !
 ! D14   D(8,6,9,11)           180.0            estimate D2E/DX2                !
 ! D15   D(8,6,9,12)            60.0            estimate D2E/DX2                !
 ! D16   D(6,9,12,13)          180.0            estimate D2E/DX2                !
 ! D17   D(10,9,12,13)         -60.0            estimate D2E/DX2                !
 ! D18   D(11,9,12,13)          60.0            estimate D2E/DX2                !
 ! D19   D(9,12,13,14)          60.0            estimate D2E/DX2                !
 ! D20   D(9,12,13,15)         -60.0            estimate D2E/DX2                !
 ! D21   D(9,12,13,16)         180.0            estimate D2E/DX2                !
 ! D22   D(12,13,16,17)        -60.0            estimate D2E/DX2                !
 ! D23   D(12,13,16,18)         60.0            estimate D2E/DX2                !
 ! D24   D(12,13,16,19)        180.0            estimate D2E/DX2                !
 ! D25   D(14,13,16,17)         60.0            estimate D2E/DX2                !
 ! D26   D(14,13,16,18)       -180.0            estimate D2E/DX2                !
 ! D27   D(14,13,16,19)        -60.0            estimate D2E/DX2                !
 ! D28   D(15,13,16,17)       -180.0            estimate D2E/DX2                !
 ! D29   D(15,13,16,18)        -60.0            estimate D2E/DX2                !
 ! D30   D(15,13,16,19)         60.0            estimate D2E/DX2                !
 ! D31   D(13,16,19,20)        180.0            estimate D2E/DX2                !
 ! D32   D(17,16,19,20)         60.0            estimate D2E/DX2                !
 ! D33   D(18,16,19,20)        -60.0            estimate D2E/DX2                !
 ! D34   D(16,19,20,21)         60.0            estimate D2E/DX2                !
 ! D35   D(16,19,20,22)        -60.0            estimate D2E/DX2                !
 ! D36   D(16,19,20,23)        180.0            estimate D2E/DX2                !
 ! D37   D(19,20,23,24)         60.0            estimate D2E/DX2                !
 ! D38   D(19,20,23,25)        -60.0            estimate D2E/DX2                !
 ! D39   D(19,20,23,26)       -180.0            estimate D2E/DX2                !
 ! D40   D(21,20,23,24)        180.0            estimate D2E/DX2                !
 ! D41   D(21,20,23,25)         60.0            estimate D2E/DX2                !
 ! D42   D(21,20,23,26)        -60.0            estimate D2E/DX2                !
 ! D43   D(22,20,23,24)        -60.0            estimate D2E/DX2                !
 ! D44   D(22,20,23,25)        180.0            estimate D2E/DX2                !
 ! D45   D(22,20,23,26)         60.0            estimate D2E/DX2                !
 ! D46   D(20,23,26,27)        180.0            estimate D2E/DX2                !
 ! D47   D(24,23,26,27)        -60.0            estimate D2E/DX2                !
 ! D48   D(25,23,26,27)         60.0            estimate D2E/DX2                !
 ! D49   D(23,26,27,28)         60.0001         estimate D2E/DX2                !
 ! D50   D(23,26,27,29)        -59.9999         estimate D2E/DX2                !
 ! D51   D(23,26,27,30)       -179.9999         estimate D2E/DX2                !
 ! D52   D(26,27,30,31)        -60.0182         estimate D2E/DX2                !
 ! D53   D(26,27,30,32)         59.9978         estimate D2E/DX2                !
 ! D54   D(26,27,30,33)        179.9905         estimate D2E/DX2                !
 ! D55   D(28,27,30,31)         59.9818         estimate D2E/DX2                !
 ! D56   D(28,27,30,32)        179.9977         estimate D2E/DX2                !
 ! D57   D(28,27,30,33)        -60.0095         estimate D2E/DX2                !
 ! D58   D(29,27,30,31)        179.9818         estimate D2E/DX2                !
 ! D59   D(29,27,30,32)        -60.0022         estimate D2E/DX2                !
 ! D60   D(29,27,30,33)         59.9905         estimate D2E/DX2                !
 ! D61   D(27,30,33,34)        179.9952         estimate D2E/DX2                !
 ! D62   D(31,30,33,34)         59.9967         estimate D2E/DX2                !
 ! D63   D(32,30,33,34)        -60.0033         estimate D2E/DX2                !
 --------------------------------------------------------------------------------
 Trust Radius=3.00D-01 FncErr=1.00D-07 GrdErr=1.00D-07
 Number of steps in this run= 165 maximum allowed number of steps= 204.
 GradGradGradGradGradGradGradGradGradGradGradGradGradGradGradGradGradGrad

                          Input orientation:                          
 ---------------------------------------------------------------------
 Center     Atomic      Atomic             Coordinates (Angstroms)
 Number     Number       Type             X           Y           Z
 ---------------------------------------------------------------------
      1          6           0       -3.870968    1.009786   -0.000362
      2          1           0       -3.514556    0.000890   -0.000580
      3          1           0       -3.512821    1.514765   -0.873075
      4          1           0       -4.940967    1.010057   -0.002020
      5          8           0       -3.395941    1.682883    1.168479
      6          6           0       -3.872267    3.031220    1.168770
      7          1           0       -4.942266    3.031491    1.167112
      8          1           0       -3.514120    3.536199    0.296057
      9          6           0       -3.360700    3.756093    2.427522
     10          1           0       -2.290702    3.755822    2.429180
     11          1           0       -3.718847    3.251114    3.300234
     12          8           0       -3.837026    5.104430    2.427813
     13          6           0       -3.362000    5.777527    3.596654
     14          1           0       -2.292001    5.777256    3.598312
     15          1           0       -3.720147    5.272548    4.469366
     16          6           0       -3.874966    7.229583    3.596967
     17          1           0       -3.516819    7.734561    2.724255
     18          1           0       -4.944965    7.229854    3.595309
     19          8           0       -3.399939    7.902679    4.765808
     20          6           0       -3.876266    9.251017    4.766099
     21          1           0       -4.946264    9.251288    4.764441
     22          1           0       -3.518118    9.755995    3.893387
     23          6           0       -3.364698    9.975890    6.024851
     24          1           0       -2.294700    9.975619    6.026509
     25          1           0       -3.722846    9.470911    6.897564
     26          8           0       -3.841024   11.324227    6.025142
     27          6           0       -3.365998   11.997324    7.193983
     28          1           0       -2.295999   11.997054    7.195640
     29          1           0       -3.724143   11.492344    8.066696
     30          6           0       -3.878967   13.449378    7.194297
     31          1           0       -3.520664   13.954634    6.321809
     32          1           0       -4.948966   13.449912    7.192601
     33          8           0       -3.403818   14.121870    8.363437
     34          1           0       -3.723098   15.027221    8.364391
 ---------------------------------------------------------------------
                    Distance matrix (angstroms):
                    1          2          3          4          5
     1  C    0.000000
     2  H    1.070000   0.000000
     3  H    1.070000   1.747303   0.000000
     4  H    1.070000   1.747303   1.747303   0.000000
     5  O    1.430000   2.051796   2.051796   2.051796   0.000000
     6  C    2.335180   3.267757   2.568651   2.568651   1.430000
     7  H    2.568651   3.547732   2.916528   2.335180   2.051796
     8  H    2.568651   3.547732   2.335180   2.916528   2.051796
     9  C    3.700973   4.474472   3.992572   3.992572   2.425826
    10  H    3.992572   4.636924   4.173823   4.524806   2.666083
    11  H    3.992572   4.636924   4.524806   4.173823   2.666083
    12  O    4.760599   5.661025   4.887399   4.887399   3.672529
    13  C    5.994075   6.806827   6.178379   6.178379   4.760599
    14  H    6.178379   6.914699   6.297026   6.534952   4.887399
    15  H    6.178379   6.914699   6.534952   6.297026   4.887399
    16  C    7.185170   8.082465   7.264404   7.264404   6.073953
    17  H    7.264404   8.199659   7.185170   7.394575   6.249629
    18  H    7.264404   8.199659   7.394575   7.185170   6.249629
    19  O    8.393464   9.228752   8.521455   8.521455   7.185170
    20  C    9.520350  10.412344   9.580291   9.580291   8.393464
    21  H    9.580291  10.503574   9.679366   9.520350   8.521455
    22  H    9.580291  10.503574   9.520350   9.679366   8.521455
    23  C   10.814367  11.654566  10.917599  10.917599   9.610375
    24  H   10.917599  11.717895  10.985178  11.123273   9.673813
    25  H   10.917599  11.717895  11.123273  10.985178   9.673813
    26  O   11.945514  12.830973  11.996611  11.996611  10.804666
    27  C   13.143044  13.989218  13.228115  13.228115  11.945514
    28  H   13.228116  14.042023  13.283946  13.398369  11.996611
    29  H   13.228114  14.042022  13.398367  13.283945  11.996610
    30  C   14.370340  15.256503  14.410120  14.410120  13.228538
    31  H   14.410470  15.319256  14.370691  14.476538  13.310456
    32  H   14.410328  15.319125  14.476374  14.370548  13.310332
    33  O   15.559503  16.412530  15.628952  15.628927  14.369965
    34  H   16.324198  17.199036  16.369528  16.369512  15.164417
                    6          7          8          9         10
     6  C    0.000000
     7  H    1.070000   0.000000
     8  H    1.070000   1.747303   0.000000
     9  C    1.540000   2.148263   2.148263   0.000000
    10  H    2.148263   3.024610   2.468846   1.070000   0.000000
    11  H    2.148263   2.468846   3.024610   1.070000   1.747303
    12  O    2.425826   2.666083   2.666083   1.430000   2.051796
    13  C    3.700973   3.992572   3.992572   2.335180   2.568651
    14  H    3.992572   4.524806   4.173823   2.568651   2.335180
    15  H    3.992572   4.173823   4.524806   2.568651   2.916528
    16  C    4.849990   4.966619   4.966619   3.700973   3.992572
    17  H    4.966619   5.155140   4.849990   3.992572   4.173823
    18  H    4.966619   4.849990   5.155140   3.992572   4.524806
    19  O    6.073953   6.249629   6.249629   4.760599   4.887399
    20  C    7.185170   7.264404   7.264404   5.994075   6.178379
    21  H    7.264404   7.185170   7.394575   6.178379   6.534952
    22  H    7.264404   7.394575   7.185170   6.178379   6.297026
    23  C    8.489264   8.620385   8.620385   7.185170   7.264404
    24  H    8.620385   8.879429   8.705814   7.264404   7.185170
    25  H    8.620385   8.705814   8.879429   7.264404   7.394575
    26  O    9.610375   9.673813   9.673813   8.393464   8.521455
    27  C   10.814367  10.917599  10.917599   9.520350   9.580291
    28  H   10.917600  11.123273  10.985178   9.580291   9.520351
    29  H   10.917598  10.985177  11.123272   9.580290   9.679365
    30  C   12.035159  12.082630  12.082631  10.814367  10.917599
    31  H   12.082980  12.161698  12.035511  10.917934  10.985496
    32  H   12.082838  12.035368  12.161530  10.917816  11.123486
    33  O   13.228198  13.309787  13.309817  11.945136  11.996224
    34  H   13.989398  14.042248  14.042267  12.744256  12.818850
                   11         12         13         14         15
    11  H    0.000000
    12  O    2.051796   0.000000
    13  C    2.568651   1.430000   0.000000
    14  H    2.916528   2.051796   1.070000   0.000000
    15  H    2.335180   2.051796   1.070000   1.747303   0.000000
    16  C    3.992572   2.425826   1.540000   2.148263   2.148263
    17  H    4.524806   2.666083   2.148263   2.468846   3.024610
    18  H    4.173823   2.666083   2.148263   3.024610   2.468846
    19  O    4.887399   3.672529   2.425826   2.666083   2.666083
    20  C    6.178379   4.760599   3.700973   3.992572   3.992572
    21  H    6.297026   4.887399   3.992572   4.524806   4.173823
    22  H    6.534952   4.887399   3.992572   4.173823   4.524806
    23  C    7.264404   6.073953   4.849990   4.966619   4.966619
    24  H    7.394575   6.249629   4.966619   4.849990   5.155140
    25  H    7.185170   6.249629   4.966619   5.155140   4.849990
    26  O    8.521455   7.185170   6.073953   6.249629   6.249629
    27  C    9.580291   8.393464   7.185170   7.264404   7.264404
    28  H    9.679367   8.521456   7.264405   7.185171   7.394576
    29  H    9.520349   8.521455   7.264403   7.394573   7.185169
    30  C   10.917598   9.610374   8.489264   8.620385   8.620384
    31  H   11.123602   9.674161   8.620714   8.706122   8.879749
    32  H   10.985408   9.674021   8.620603   8.879641   8.706049
    33  O   11.996191  10.804329   9.609997   9.673425   9.673384
    34  H   12.818829  11.563637  10.412422  10.503590  10.503564
                   16         17         18         19         20
    16  C    0.000000
    17  H    1.070000   0.000000
    18  H    1.070000   1.747303   0.000000
    19  O    1.430000   2.051796   2.051796   0.000000
    20  C    2.335180   2.568651   2.568651   1.430000   0.000000
    21  H    2.568651   2.916528   2.335180   2.051796   1.070000
    22  H    2.568651   2.335180   2.916528   2.051796   1.070000
    23  C    3.700973   3.992572   3.992572   2.425826   1.540000
    24  H    3.992572   4.173823   4.524806   2.666083   2.148263
    25  H    3.992572   4.524806   4.173823   2.666083   2.148263
    26  O    4.760599   4.887399   4.887399   3.672529   2.425826
    27  C    5.994075   6.178379   6.178379   4.760599   3.700973
    28  H    6.178379   6.297026   6.534953   4.887399   3.992573
    29  H    6.178378   6.534952   6.297025   4.887398   3.992572
    30  C    7.185170   7.264404   7.264403   6.073952   4.849989
    31  H    7.264751   7.185521   7.394937   6.249949   4.966961
    32  H    7.264610   7.394755   7.185378   6.249848   4.966822
    33  O    8.393143   8.521201   8.521155   7.184795   6.073653
    34  H    9.140818   9.221527   9.221498   7.988324   6.807033
                   21         22         23         24         25
    21  H    0.000000
    22  H    1.747303   0.000000
    23  C    2.148263   2.148263   0.000000
    24  H    3.024610   2.468846   1.070000   0.000000
    25  H    2.468846   3.024610   1.070000   1.747303   0.000000
    26  O    2.666083   2.666083   1.430000   2.051796   2.051796
    27  C    3.992572   3.992572   2.335180   2.568651   2.568651
    28  H    4.524806   4.173823   2.568651   2.335181   2.916529
    29  H    4.173823   4.524805   2.568650   2.916526   2.335179
    30  C    4.966618   4.966619   3.700973   3.992573   3.992571
    31  H    5.155501   4.850341   3.992857   4.174057   4.525057
    32  H    4.850198   5.155305   3.992790   4.524999   4.174071
    33  O    6.249359   6.249422   4.760217   4.887001   4.886920
    34  H    6.914997   6.915035   5.578336   5.746711   5.746665
                   26         27         28         29         30
    26  O    0.000000
    27  C    1.430000   0.000000
    28  H    2.051796   1.070000   0.000000
    29  H    2.051796   1.070000   1.747303   0.000000
    30  C    2.425826   1.540000   2.148263   2.148263   0.000000
    31  H    2.666398   2.148411   2.468907   3.024716   1.070000
    32  H    2.666277   2.148442   3.024738   2.469070   1.070000
    33  O    3.672272   2.425438   2.665681   2.665534   1.430000
    34  H    4.381570   3.267667   3.547464   3.547390   1.970533
                   31         32         33         34
    31  H    0.000000
    32  H    1.747303   0.000000
    33  O    2.051796   2.051796   0.000000
    34  H    2.315937   2.315976   0.960000   0.000000
 Symmetry turned off by external request.
 Stoichiometry    C9H20O5
 Framework group  C1[X(C9H20O5)]
 Deg. of freedom    96
 Full point group                 C1      NOp   1
 Rotational constants (GHZ):      7.5845555      0.1012274      0.1004440
 Standard basis: 6-31G(d) (6D, 7F)
 Integral buffers will be    131072 words long.
 Raffenetti 1 integral format.
 Two-electron integral symmetry is turned off.
   250 basis functions,   472 primitive gaussians,   250 cartesian basis functions
    57 alpha electrons       57 beta electrons
       nuclear repulsion energy       866.3890879879 Hartrees.
 NAtoms=   34 NActive=   34 NUniq=   34 SFac= 7.50D-01 NAtFMM=   80 NAOKFM=F Big=F
 One-electron integrals computed using PRISM.
 NBasis=   250 RedAO= T  NBF=   250
 NBsUse=   250 1.00D-06 NBFU=   250
 Harris functional with IExCor=  205 diagonalized for initial guess.
 ExpMin= 1.61D-01 ExpMax= 5.48D+03 ExpMxC= 8.25D+02 IAcc=1 IRadAn=         1 AccDes= 0.00D+00
 HarFok:  IExCor=  205 AccDes= 0.00D+00 IRadAn=         1 IDoV= 1
 ScaDFX=  1.000000  1.000000  1.000000  1.000000
 FoFCou: FMM=F IPFlag=           0 FMFlag=      100000 FMFlg1=           0
         NFxFlg=           0 DoJE=T BraDBF=F KetDBF=T FulRan=T
         Omega=  0.000000  0.000000  1.000000  0.000000  0.000000 ICntrl=     500 IOpCl=  0
         NMat0=    1 NMatS0=    1 NMatT0=    0 NMatD0=    1 NMtDS0=    0 NMtDT0=    0
         I1Cent=           4 NGrid=           0.
 Symmetry not used in FoFCou.
 Requested convergence on RMS density matrix=1.00D-08 within 128 cycles.
 Requested convergence on MAX density matrix=1.00D-06.
 Requested convergence on             energy=1.00D-06.
 No special actions if energy rises.
 Integral accuracy reduced to 1.0D-05 until final iterations.
 Initial convergence to 1.0D-05 achieved.  Increase integral accuracy.
 SCF Done:  E(RHF) =  -726.679133598     A.U. after   12 cycles
             Convg  =    0.4618D-08             -V/T =  2.0017

 **********************************************************************

            Population analysis using the SCF density.

 **********************************************************************

 Alpha  occ. eigenvalues --  -20.56508 -20.56483 -20.56415 -20.56039 -20.56032
 Alpha  occ. eigenvalues --  -11.27283 -11.27263 -11.27241 -11.27201 -11.27170
 Alpha  occ. eigenvalues --  -11.27169 -11.27079 -11.26959 -11.26542  -1.37717
 Alpha  occ. eigenvalues --   -1.37161  -1.36497  -1.35906  -1.35166  -1.04725
 Alpha  occ. eigenvalues --   -1.02360  -0.98980  -0.95179  -0.91147  -0.84587
 Alpha  occ. eigenvalues --   -0.84246  -0.84026  -0.83739  -0.70585  -0.69962
 Alpha  occ. eigenvalues --   -0.69416  -0.67625  -0.67226  -0.65253  -0.65116
 Alpha  occ. eigenvalues --   -0.64330  -0.62583  -0.62496  -0.61427  -0.59308
 Alpha  occ. eigenvalues --   -0.59285  -0.58396  -0.56138  -0.54477  -0.53263
 Alpha  occ. eigenvalues --   -0.52200  -0.51163  -0.49571  -0.47393  -0.47216
 Alpha  occ. eigenvalues --   -0.47137  -0.46910  -0.44698  -0.42873  -0.42823
 Alpha  occ. eigenvalues --   -0.42755  -0.42556
 Alpha virt. eigenvalues --    0.21674   0.23338   0.23494   0.23941   0.24159
 Alpha virt. eigenvalues --    0.28362   0.28409   0.29031   0.29666   0.30065
 Alpha virt. eigenvalues --    0.30516   0.31445   0.31714   0.32841   0.33492
 Alpha virt. eigenvalues --    0.34378   0.34976   0.35373   0.36590   0.36736
 Alpha virt. eigenvalues --    0.37502   0.37607   0.37704   0.37750   0.39225
 Alpha virt. eigenvalues --    0.41028   0.41963   0.42644   0.43975   0.45256
 Alpha virt. eigenvalues --    0.45730   0.48962   0.55398   0.67635   0.71688
 Alpha virt. eigenvalues --    0.74864   0.75737   0.76197   0.77122   0.77161
 Alpha virt. eigenvalues --    0.78152   0.78903   0.79551   0.79891   0.80395
 Alpha virt. eigenvalues --    0.81637   0.82868   0.82920   0.83328   0.88687
 Alpha virt. eigenvalues --    0.89291   0.93381   0.93681   0.94581   0.99581
 Alpha virt. eigenvalues --    1.00398   1.00493   1.00992   1.01475   1.02326
 Alpha virt. eigenvalues --    1.06790   1.07540   1.08544   1.10971   1.11966
 Alpha virt. eigenvalues --    1.13244   1.14603   1.14869   1.15369   1.15861
 Alpha virt. eigenvalues --    1.19037   1.19140   1.19701   1.19776   1.20243
 Alpha virt. eigenvalues --    1.20291   1.20583   1.20733   1.21244   1.22306
 Alpha virt. eigenvalues --    1.23659   1.25653   1.25989   1.26856   1.27127
 Alpha virt. eigenvalues --    1.29542   1.30068   1.32256   1.37151   1.40364
 Alpha virt. eigenvalues --    1.41633   1.42507   1.43210   1.46477   1.47778
 Alpha virt. eigenvalues --    1.52918   1.56308   1.61042   1.64532   1.65479
 Alpha virt. eigenvalues --    1.66298   1.66561   1.67749   1.68261   1.69362
 Alpha virt. eigenvalues --    1.69474   1.71435   1.72371   1.74230   1.76451
 Alpha virt. eigenvalues --    1.79188   1.80704   1.81225   1.83338   1.87779
 Alpha virt. eigenvalues --    1.92702   2.02061   2.03711   2.10191   2.11861
 Alpha virt. eigenvalues --    2.12755   2.13603   2.13637   2.14816   2.15890
 Alpha virt. eigenvalues --    2.16580   2.18190   2.21181   2.27359   2.29704
 Alpha virt. eigenvalues --    2.32280   2.34065   2.34971   2.36466   2.36594
 Alpha virt. eigenvalues --    2.38638   2.38981   2.40434   2.41493   2.43439
 Alpha virt. eigenvalues --    2.43846   2.47388   2.47509   2.48176   2.49154
 Alpha virt. eigenvalues --    2.50604   2.51924   2.53115   2.56448   2.57716
 Alpha virt. eigenvalues --    2.58726   2.61332   2.63650   2.66555   2.66606
 Alpha virt. eigenvalues --    2.68775   2.72210   2.74986   2.77763   2.83019
 Alpha virt. eigenvalues --    2.84158   2.85780   2.86697   2.86958   2.90031
 Alpha virt. eigenvalues --    2.92925   3.00345   3.02713   3.04092   3.04739
 Alpha virt. eigenvalues --    3.06657   3.08458   3.09147   3.15030   3.25081
 Alpha virt. eigenvalues --    3.34529   3.39071   3.43011   3.43178   4.12900
 Alpha virt. eigenvalues --    4.24646   4.35344   4.48545   4.58908   4.64458
 Alpha virt. eigenvalues --    4.65615   4.66155   4.66195   4.68651   4.83420
 Alpha virt. eigenvalues --    4.86438   4.90322   4.93542
          Condensed to atoms (all electrons):
              1          2          3          4          5          6
     1  C    4.818987   0.402286   0.393624   0.393624   0.215703  -0.054842
     2  H    0.402286   0.499566  -0.030168  -0.030168  -0.028499   0.005038
     3  H    0.393624  -0.030168   0.570789  -0.043982  -0.039808  -0.007219
     4  H    0.393624  -0.030168  -0.043982   0.570789  -0.039808  -0.007219
     5  O    0.215703  -0.028499  -0.039808  -0.039808   8.440108   0.204255
     6  C   -0.054842   0.005038  -0.007219  -0.007219   0.204255   4.786260
     7  H   -0.005634  -0.000108  -0.001324   0.007716  -0.039439   0.392262
     8  H   -0.005634  -0.000108   0.007716  -0.001324  -0.039439   0.392262
     9  C    0.004469  -0.000082  -0.000147  -0.000147  -0.037163   0.391536
    10  H   -0.000172   0.000004  -0.000014   0.000018   0.003690  -0.039001
    11  H   -0.000172   0.000004   0.000018  -0.000014   0.003690  -0.039001
    12  O   -0.000042   0.000000   0.000001   0.000001   0.000731  -0.036831
    13  C    0.000002   0.000000   0.000000   0.000000  -0.000037   0.004332
    14  H    0.000000   0.000000   0.000000   0.000000   0.000001  -0.000077
    15  H    0.000000   0.000000   0.000000   0.000000   0.000001  -0.000077
    16  C    0.000000   0.000000   0.000000   0.000000   0.000000  -0.000079
    17  H    0.000000   0.000000   0.000000   0.000000   0.000000   0.000003
    18  H    0.000000   0.000000   0.000000   0.000000   0.000000   0.000003
    19  O    0.000000   0.000000   0.000000   0.000000   0.000000   0.000000
    20  C    0.000000   0.000000   0.000000   0.000000   0.000000   0.000000
    21  H    0.000000   0.000000   0.000000   0.000000   0.000000   0.000000
    22  H    0.000000   0.000000   0.000000   0.000000   0.000000   0.000000
    23  C    0.000000   0.000000   0.000000   0.000000   0.000000   0.000000
    24  H    0.000000   0.000000   0.000000   0.000000   0.000000   0.000000
    25  H    0.000000   0.000000   0.000000   0.000000   0.000000   0.000000
    26  O    0.000000   0.000000   0.000000   0.000000   0.000000   0.000000
    27  C    0.000000   0.000000   0.000000   0.000000   0.000000   0.000000
    28  H    0.000000   0.000000   0.000000   0.000000   0.000000   0.000000
    29  H    0.000000   0.000000   0.000000   0.000000   0.000000   0.000000
    30  C    0.000000   0.000000   0.000000   0.000000   0.000000   0.000000
    31  H    0.000000   0.000000   0.000000   0.000000   0.000000   0.000000
    32  H    0.000000   0.000000   0.000000   0.000000   0.000000   0.000000
    33  O    0.000000   0.000000   0.000000   0.000000   0.000000   0.000000
    34  H    0.000000   0.000000   0.000000   0.000000   0.000000   0.000000
              7          8          9         10         11         12
     1  C   -0.005634  -0.005634   0.004469  -0.000172  -0.000172  -0.000042
     2  H   -0.000108  -0.000108  -0.000082   0.000004   0.000004   0.000000
     3  H   -0.001324   0.007716  -0.000147  -0.000014   0.000018   0.000001
     4  H    0.007716  -0.001324  -0.000147   0.000018  -0.000014   0.000001
     5  O   -0.039439  -0.039439  -0.037163   0.003690   0.003690   0.000731
     6  C    0.392262   0.392262   0.391536  -0.039001  -0.039001  -0.036831
     7  H    0.571331  -0.045632  -0.039731   0.005285  -0.006201   0.003690
     8  H   -0.045632   0.571331  -0.039731  -0.006201   0.005285   0.003690
     9  C   -0.039731  -0.039731   4.784613   0.393481   0.393481   0.195712
    10  H    0.005285  -0.006201   0.393481   0.564292  -0.044429  -0.038683
    11  H   -0.006201   0.005285   0.393481  -0.044429   0.564292  -0.038683
    12  O    0.003690   0.003690   0.195712  -0.038683  -0.038683   8.488943
    13  C   -0.000183  -0.000183  -0.048648  -0.006190  -0.006190   0.197356
    14  H    0.000016  -0.000011  -0.006109   0.007275  -0.001327  -0.038703
    15  H   -0.000011   0.000016  -0.006109  -0.001327   0.007275  -0.038703
    16  C    0.000003   0.000003   0.004325  -0.000073  -0.000073  -0.036768
    17  H    0.000000   0.000001  -0.000180  -0.000012   0.000016   0.003688
    18  H    0.000001   0.000000  -0.000180   0.000016  -0.000012   0.003688
    19  O    0.000000   0.000000  -0.000037   0.000001   0.000001   0.000731
    20  C    0.000000   0.000000   0.000002   0.000000   0.000000  -0.000037
    21  H    0.000000   0.000000   0.000000   0.000000   0.000000   0.000001
    22  H    0.000000   0.000000   0.000000   0.000000   0.000000   0.000001
    23  C    0.000000   0.000000   0.000000   0.000000   0.000000   0.000000
    24  H    0.000000   0.000000   0.000000   0.000000   0.000000   0.000000
    25  H    0.000000   0.000000   0.000000   0.000000   0.000000   0.000000
    26  O    0.000000   0.000000   0.000000   0.000000   0.000000   0.000000
    27  C    0.000000   0.000000   0.000000   0.000000   0.000000   0.000000
    28  H    0.000000   0.000000   0.000000   0.000000   0.000000   0.000000
    29  H    0.000000   0.000000   0.000000   0.000000   0.000000   0.000000
    30  C    0.000000   0.000000   0.000000   0.000000   0.000000   0.000000
    31  H    0.000000   0.000000   0.000000   0.000000   0.000000   0.000000
    32  H    0.000000   0.000000   0.000000   0.000000   0.000000   0.000000
    33  O    0.000000   0.000000   0.000000   0.000000   0.000000   0.000000
    34  H    0.000000   0.000000   0.000000   0.000000   0.000000   0.000000
             13         14         15         16         17         18
     1  C    0.000002   0.000000   0.000000   0.000000   0.000000   0.000000
     2  H    0.000000   0.000000   0.000000   0.000000   0.000000   0.000000
     3  H    0.000000   0.000000   0.000000   0.000000   0.000000   0.000000
     4  H    0.000000   0.000000   0.000000   0.000000   0.000000   0.000000
     5  O   -0.000037   0.000001   0.000001   0.000000   0.000000   0.000000
     6  C    0.004332  -0.000077  -0.000077  -0.000079   0.000003   0.000003
     7  H   -0.000183   0.000016  -0.000011   0.000003   0.000000   0.000001
     8  H   -0.000183  -0.000011   0.000016   0.000003   0.000001   0.000000
     9  C   -0.048648  -0.006109  -0.006109   0.004325  -0.000180  -0.000180
    10  H   -0.006190   0.007275  -0.001327  -0.000073  -0.000012   0.000016
    11  H   -0.006190  -0.001327   0.007275  -0.000073   0.000016  -0.000012
    12  O    0.197356  -0.038703  -0.038703  -0.036768   0.003688   0.003688
    13  C    4.780296   0.393440   0.393440   0.392071  -0.039182  -0.039182
    14  H    0.393440   0.565051  -0.044553  -0.039288  -0.006149   0.005254
    15  H    0.393440  -0.044553   0.565051  -0.039288   0.005254  -0.006149
    16  C    0.392071  -0.039288  -0.039288   4.781695   0.393271   0.393271
    17  H   -0.039182  -0.006149   0.005254   0.393271   0.565716  -0.044680
    18  H   -0.039182   0.005254  -0.006149   0.393271  -0.044680   0.565716
    19  O   -0.036695   0.003673   0.003673   0.196882  -0.038684  -0.038684
    20  C    0.004323  -0.000182  -0.000182  -0.048660  -0.006188  -0.006188
    21  H   -0.000075   0.000016  -0.000012  -0.006177  -0.001330   0.007291
    22  H   -0.000075  -0.000012   0.000016  -0.006177   0.007291  -0.001330
    23  C   -0.000077   0.000003   0.000003   0.004322  -0.000075  -0.000075
    24  H    0.000003   0.000001   0.000000  -0.000181  -0.000012   0.000016
    25  H    0.000003   0.000000   0.000001  -0.000181   0.000016  -0.000012
    26  O    0.000000   0.000000   0.000000  -0.000037   0.000001   0.000001
    27  C    0.000000   0.000000   0.000000   0.000002   0.000000   0.000000
    28  H    0.000000   0.000000   0.000000   0.000000   0.000000   0.000000
    29  H    0.000000   0.000000   0.000000   0.000000   0.000000   0.000000
    30  C    0.000000   0.000000   0.000000   0.000000   0.000000   0.000000
    31  H    0.000000   0.000000   0.000000   0.000000   0.000000   0.000000
    32  H    0.000000   0.000000   0.000000   0.000000   0.000000   0.000000
    33  O    0.000000   0.000000   0.000000   0.000000   0.000000   0.000000
    34  H    0.000000   0.000000   0.000000   0.000000   0.000000   0.000000
             19         20         21         22         23         24
     1  C    0.000000   0.000000   0.000000   0.000000   0.000000   0.000000
     2  H    0.000000   0.000000   0.000000   0.000000   0.000000   0.000000
     3  H    0.000000   0.000000   0.000000   0.000000   0.000000   0.000000
     4  H    0.000000   0.000000   0.000000   0.000000   0.000000   0.000000
     5  O    0.000000   0.000000   0.000000   0.000000   0.000000   0.000000
     6  C    0.000000   0.000000   0.000000   0.000000   0.000000   0.000000
     7  H    0.000000   0.000000   0.000000   0.000000   0.000000   0.000000
     8  H    0.000000   0.000000   0.000000   0.000000   0.000000   0.000000
     9  C   -0.000037   0.000002   0.000000   0.000000   0.000000   0.000000
    10  H    0.000001   0.000000   0.000000   0.000000   0.000000   0.000000
    11  H    0.000001   0.000000   0.000000   0.000000   0.000000   0.000000
    12  O    0.000731  -0.000037   0.000001   0.000001   0.000000   0.000000
    13  C   -0.036695   0.004323  -0.000075  -0.000075  -0.000077   0.000003
    14  H    0.003673  -0.000182   0.000016  -0.000012   0.000003   0.000001
    15  H    0.003673  -0.000182  -0.000012   0.000016   0.000003   0.000000
    16  C    0.196882  -0.048660  -0.006177  -0.006177   0.004322  -0.000181
    17  H   -0.038684  -0.006188  -0.001330   0.007291  -0.000075  -0.000012
    18  H   -0.038684  -0.006188   0.007291  -0.001330  -0.000075   0.000016
    19  O    8.487229   0.197078  -0.038686  -0.038686  -0.036701   0.003674
    20  C    0.197078   4.781332   0.393281   0.393281   0.392119  -0.039240
    21  H   -0.038686   0.393281   0.565700  -0.044678  -0.039213   0.005251
    22  H   -0.038686   0.393281  -0.044678   0.565701  -0.039213  -0.006146
    23  C   -0.036701   0.392119  -0.039213  -0.039213   4.780847   0.393468
    24  H    0.003674  -0.039240   0.005251  -0.006146   0.393468   0.564626
    25  H    0.003674  -0.039240  -0.006146   0.005251   0.393468  -0.044505
    26  O    0.000731  -0.036723   0.003684   0.003684   0.197197  -0.038693
    27  C   -0.000037   0.004350  -0.000181  -0.000181  -0.048248  -0.006131
    28  H    0.000001  -0.000077   0.000016  -0.000012  -0.006213   0.007253
    29  H    0.000001  -0.000077  -0.000012   0.000016  -0.006213  -0.001320
    30  C    0.000000  -0.000082   0.000003   0.000003   0.004260  -0.000079
    31  H    0.000000   0.000003   0.000000   0.000001  -0.000201  -0.000011
    32  H    0.000000   0.000003   0.000001   0.000000  -0.000201   0.000016
    33  O    0.000000   0.000000   0.000000   0.000000  -0.000043   0.000001
    34  H    0.000000   0.000000   0.000000   0.000000   0.000003   0.000000
             25         26         27         28         29         30
     1  C    0.000000   0.000000   0.000000   0.000000   0.000000   0.000000
     2  H    0.000000   0.000000   0.000000   0.000000   0.000000   0.000000
     3  H    0.000000   0.000000   0.000000   0.000000   0.000000   0.000000
     4  H    0.000000   0.000000   0.000000   0.000000   0.000000   0.000000
     5  O    0.000000   0.000000   0.000000   0.000000   0.000000   0.000000
     6  C    0.000000   0.000000   0.000000   0.000000   0.000000   0.000000
     7  H    0.000000   0.000000   0.000000   0.000000   0.000000   0.000000
     8  H    0.000000   0.000000   0.000000   0.000000   0.000000   0.000000
     9  C    0.000000   0.000000   0.000000   0.000000   0.000000   0.000000
    10  H    0.000000   0.000000   0.000000   0.000000   0.000000   0.000000
    11  H    0.000000   0.000000   0.000000   0.000000   0.000000   0.000000
    12  O    0.000000   0.000000   0.000000   0.000000   0.000000   0.000000
    13  C    0.000003   0.000000   0.000000   0.000000   0.000000   0.000000
    14  H    0.000000   0.000000   0.000000   0.000000   0.000000   0.000000
    15  H    0.000001   0.000000   0.000000   0.000000   0.000000   0.000000
    16  C   -0.000181  -0.000037   0.000002   0.000000   0.000000   0.000000
    17  H    0.000016   0.000001   0.000000   0.000000   0.000000   0.000000
    18  H   -0.000012   0.000001   0.000000   0.000000   0.000000   0.000000
    19  O    0.003674   0.000731  -0.000037   0.000001   0.000001   0.000000
    20  C   -0.039240  -0.036723   0.004350  -0.000077  -0.000077  -0.000082
    21  H   -0.006146   0.003684  -0.000181   0.000016  -0.000012   0.000003
    22  H    0.005251   0.003684  -0.000181  -0.000012   0.000016   0.000003
    23  C    0.393468   0.197197  -0.048248  -0.006213  -0.006213   0.004260
    24  H   -0.044505  -0.038693  -0.006131   0.007253  -0.001320  -0.000079
    25  H    0.564625  -0.038693  -0.006130  -0.001320   0.007252  -0.000080
    26  O   -0.038693   8.486188   0.196742  -0.038517  -0.038515  -0.037093
    27  C   -0.006130   0.196742   4.807681   0.392442   0.392445   0.379340
    28  H   -0.001320  -0.038517   0.392442   0.563831  -0.044491  -0.038783
    29  H    0.007252  -0.038515   0.392445  -0.044491   0.563821  -0.038787
    30  C   -0.000080  -0.037093   0.379340  -0.038783  -0.038787   4.754472
    31  H    0.000016   0.003788  -0.043462  -0.006242   0.005334   0.397906
    32  H   -0.000011   0.003789  -0.043462   0.005333  -0.006239   0.397909
    33  O    0.000001   0.000722  -0.042242   0.003969   0.003970   0.204067
    34  H    0.000000  -0.000063   0.004896  -0.000205  -0.000205  -0.020094
             31         32         33         34
     1  C    0.000000   0.000000   0.000000   0.000000
     2  H    0.000000   0.000000   0.000000   0.000000
     3  H    0.000000   0.000000   0.000000   0.000000
     4  H    0.000000   0.000000   0.000000   0.000000
     5  O    0.000000   0.000000   0.000000   0.000000
     6  C    0.000000   0.000000   0.000000   0.000000
     7  H    0.000000   0.000000   0.000000   0.000000
     8  H    0.000000   0.000000   0.000000   0.000000
     9  C    0.000000   0.000000   0.000000   0.000000
    10  H    0.000000   0.000000   0.000000   0.000000
    11  H    0.000000   0.000000   0.000000   0.000000
    12  O    0.000000   0.000000   0.000000   0.000000
    13  C    0.000000   0.000000   0.000000   0.000000
    14  H    0.000000   0.000000   0.000000   0.000000
    15  H    0.000000   0.000000   0.000000   0.000000
    16  C    0.000000   0.000000   0.000000   0.000000
    17  H    0.000000   0.000000   0.000000   0.000000
    18  H    0.000000   0.000000   0.000000   0.000000
    19  O    0.000000   0.000000   0.000000   0.000000
    20  C    0.000003   0.000003   0.000000   0.000000
    21  H    0.000000   0.000001   0.000000   0.000000
    22  H    0.000001   0.000000   0.000000   0.000000
    23  C   -0.000201  -0.000201  -0.000043   0.000003
    24  H   -0.000011   0.000016   0.000001   0.000000
    25  H    0.000016  -0.000011   0.000001   0.000000
    26  O    0.003788   0.003789   0.000722  -0.000063
    27  C   -0.043462  -0.043462  -0.042242   0.004896
    28  H   -0.006242   0.005333   0.003969  -0.000205
    29  H    0.005334  -0.006239   0.003970  -0.000205
    30  C    0.397906   0.397909   0.204067  -0.020094
    31  H    0.568935  -0.043481  -0.037764  -0.003174
    32  H   -0.043481   0.568919  -0.037764  -0.003173
    33  O   -0.037764  -0.037764   8.406073   0.259822
    34  H   -0.003174  -0.003173   0.259822   0.319200
 Mulliken atomic charges:
              1
     1  C   -0.162199
     2  H    0.182235
     3  H    0.150514
     4  H    0.150514
     5  O   -0.643985
     6  C    0.008394
     7  H    0.157958
     8  H    0.157958
     9  C    0.010644
    10  H    0.162041
    11  H    0.162041
    12  O   -0.669784
    13  C    0.011452
    14  H    0.161681
    15  H    0.161681
    16  C    0.011139
    17  H    0.161236
    18  H    0.161236
    19  O   -0.669138
    20  C    0.011105
    21  H    0.161264
    22  H    0.161264
    23  C    0.010781
    24  H    0.162010
    25  H    0.162011
    26  O   -0.668195
    27  C    0.012175
    28  H    0.163014
    29  H    0.163019
    30  C   -0.002963
    31  H    0.158353
    32  H    0.158361
    33  O   -0.760811
    34  H    0.442992
 Sum of Mulliken atomic charges =   0.00000
 Mulliken charges with hydrogens summed into heavy atoms:
              1
     1  C    0.321064
     5  O   -0.643985
     6  C    0.324311
     9  C    0.334726
    12  O   -0.669784
    13  C    0.334814
    16  C    0.333611
    19  O   -0.669138
    20  C    0.333633
    23  C    0.334802
    26  O   -0.668195
    27  C    0.338208
    30  C    0.313752
    33  O   -0.317819
 Sum of Mulliken charges with hydrogens summed into heavy atoms =   0.00000
 DipInt: DoE/N= T F RetVal/Mat= T F Init=T NMatP=  1 IDeriv=0 Min/MaxMlt=  0  4
 Entering OneElI...
 OneElI was handed    33391611 working-precision words.
 Multipole integrals L=0 to 4 MinM= 0 MaxM= 0.
 Requested accuracy = 0.1000D-12
 PrsmSu:  NPrtUS=   1 ThrOK=F IAlg=1
 PRISM was handed    33129628 working-precision words and  3020 shell-pairs
 IPart=  0 NShTot=        3020 NBatch=          35 AvBLen=        86.3
 Electronic moments (au):
       -114.00000000        781.13402330      -1625.74162309       -902.41557936
      -5492.84966851     -30548.79862157      -9843.05482396      11099.10355781
       6113.96225662     -17137.70206506      39575.80187933    -646191.34965090
    -120350.30783048     208375.79998944     -77745.10185711     -42507.74875438
      66419.15048789    -207713.49959002    -363539.89447510     116243.66318222
    -292042.29970724  -14582919.13163684   -1578030.93788795     557797.30501085
     302730.13126278    4404812.69420334   -8212552.43872744     809010.26831559
   -2702689.53635926   -1457648.22084540    -459743.50898851   -4683584.18072282
    -808718.36083342    2466059.39603656    1402454.78398478
 Electronic spatial extent (au):  <R**2>=          45884.7031
 DipInt: DoE/N= F T RetVal/Mat= T F Init=T NMatP=  1 IDeriv=0 Min/MaxMlt=  0  4
 Nuclear    moments (au):
        114.00000000       -781.56424169       1626.00569946        901.86292961
       5434.62224474      30503.07238298       9771.39133934     -11107.56095167
      -6115.06075219      17136.94483685     -38317.72939416     644288.64937038
     118649.49090854    -208255.03891018      76938.31019240      42044.23214713
     -66008.84195008     206686.45536574     363179.79753807    -116365.45477269
     274069.97194448   14513479.39616350    1540921.13038444    -540170.22273433
    -292984.26772731   -4397592.31671111    8192860.08004255    -798827.68605542
    2670208.19365279    1440999.49564860     451910.86638483    4660391.76126113
     800857.68343583   -2467217.92484498   -1397642.27863411
 Total      moments (au):
          0.00000000         -0.43021838          0.26407636         -0.55264975
        -58.22742376        -45.72623859        -71.66348462         -8.45739386
         -1.09849558         -0.75722821       1258.07248517      -1902.70028052
      -1700.81692194        120.76107926       -806.79166470       -463.51660724
        410.30853781      -1027.04422428       -360.09693703       -121.79159047
     -17972.32776276     -69439.73547334     -37109.80750350      17627.08227652
       9745.86353547       7220.37749223     -19692.35868489      10182.58226016
     -32481.34270647     -16648.72519680      -7832.64260368     -23192.41946169
      -7860.67739759      -1158.52880843       4812.50535067
 Traceless Quadrup. (au):
          0.31162523         12.81281040        -13.12443563         -8.45739386
         -1.09849558         -0.75722821
 Charge=              0.0000 electrons
 Dipole moment (field-independent basis, Debye):
    X=             -1.0935    Y=              0.6712    Z=             -1.4047  Tot=              1.9025
 Quadrupole moment (field-independent basis, Debye-Ang):
   XX=            -78.3179   YY=            -61.5034   ZZ=            -96.3898
   XY=            -11.3755   XZ=             -1.4775   YZ=             -1.0185
 Traceless Quadrupole moment (field-independent basis, Debye-Ang):
   XX=              0.4191   YY=             17.2337   ZZ=            -17.6528
   XY=            -11.3755   XZ=             -1.4775   YZ=             -1.0185
 Octapole moment (field-independent basis, Debye-Ang**2):
  XXX=            895.4475  YYY=          -1354.2687  ZZZ=          -1210.5759  XYY=             85.9531
  XXY=           -574.2432  XXZ=           -329.9132  XZZ=            292.0418  YZZ=           -731.0105
  YYZ=           -256.3031  XYZ=            -86.6866
 Hexadecapole moment (field-independent basis, Debye-Ang**3):
 XXXX=          -6769.2400 YYYY=         -26154.3324 ZZZZ=         -13977.3321 XXXY=           6639.2040
 XXXZ=           3670.7593 YYYX=           2719.5402 YYYZ=          -7417.0861 ZZZX=           3835.2485
 ZZZY=         -12234.0304 XXYY=          -6270.7078 XXZZ=          -2950.1486 YYZZ=          -8735.3767
 XXYZ=          -2960.7078 YYXZ=           -436.3575 ZZXY=           1812.6202
 N-N= 8.663890879879D+02 E-N=-3.440394565725D+03  KE= 7.254781976956D+02
 Entering OneElI...
 OneElI was handed    33265511 working-precision words.
 Calculate electrostatic properties
    NBasis =   250  MinDer = 0  MaxDer = 0
    NGrid  =    34  NMatD  =   1
 Requested accuracy = 0.1000D-12
 PrsmSu:  NPrtUS=   1 ThrOK=F IAlg=1
 PRISM was handed    33027749 working-precision words and  2615 shell-pairs
 IPart=  0 NShTot=       88910 NBatch=        2615 AvBLen=        34.0
 --------------------------------------------------------
       Center         ----      EFG at Nuclei      ----
                      3XX-RR        3YY-RR        3ZZ-RR
 --------------------------------------------------------
     1   Atom        0.123679      0.070866     -0.194546
     2   Atom        0.116666     -0.279472      0.162807
     3   Atom        0.119819      0.052769     -0.172588
     4   Atom       -0.334094      0.169599      0.164495
     5   Atom        1.308543     -1.266692     -0.041851
     6   Atom        0.140578     -0.298342      0.157764
     7   Atom       -0.330647      0.158010      0.172636
     8   Atom        0.117884      0.048301     -0.166185
     9   Atom        0.146218     -0.311696      0.165478
    10   Atom       -0.330034      0.157290      0.172743
    11   Atom        0.117573      0.048110     -0.165684
    12   Atom        1.295288     -1.255780     -0.039508
    13   Atom        0.146236      0.028795     -0.175031
    14   Atom       -0.329990      0.164268      0.165722
    15   Atom        0.117651      0.049112     -0.166762
    16   Atom        0.145866      0.030515     -0.176381
    17   Atom        0.117704      0.049080     -0.166784
    18   Atom       -0.330069      0.164366      0.165703
    19   Atom        1.296260     -1.260215     -0.036045
    20   Atom        0.145598     -0.309657      0.164059
    21   Atom       -0.330055      0.157283      0.172772
    22   Atom        0.117697      0.047916     -0.165613
    23   Atom        0.146264     -0.310094      0.163830
    24   Atom       -0.329943      0.157229      0.172714
    25   Atom        0.117651      0.047857     -0.165508
    26   Atom        1.296612     -1.261094     -0.035519
    27   Atom        0.147222      0.028200     -0.175422
    28   Atom       -0.329919      0.164238      0.165681
    29   Atom        0.117603      0.048927     -0.166530
    30   Atom        0.147707      0.024218     -0.171925
    31   Atom        0.117524      0.050214     -0.167738
    32   Atom       -0.331239      0.164731      0.166508
    33   Atom        1.272312     -1.203082     -0.069229
    34   Atom        0.174403     -0.400334      0.225931
 --------------------------------------------------------
                        XY            XZ            YZ
 --------------------------------------------------------
     1   Atom       -0.092408     -0.154741     -0.217873
     2   Atom        0.158775     -0.007269     -0.004291
     3   Atom       -0.085851      0.134656      0.186817
     4   Atom       -0.000765     -0.003252     -0.011655
     5   Atom        0.501417     -0.874805     -1.081874
     6   Atom        0.173206     -0.032940     -0.017446
     7   Atom       -0.000012     -0.002217     -0.005394
     8   Atom       -0.075977      0.138758      0.187438
     9   Atom        0.180132     -0.032742     -0.018445
    10   Atom       -0.000209     -0.002000     -0.005251
    11   Atom       -0.075588      0.138933      0.187009
    12   Atom        0.501946     -0.869250     -1.065149
    13   Atom       -0.059635     -0.171083     -0.214072
    14   Atom        0.001195     -0.001251     -0.009337
    15   Atom       -0.082632      0.134801      0.186359
    16   Atom       -0.060729     -0.171395     -0.214542
    17   Atom       -0.082703      0.134754      0.186445
    18   Atom        0.001285     -0.001259     -0.009364
    19   Atom        0.504715     -0.868418     -1.064016
    20   Atom        0.179034     -0.033057     -0.018590
    21   Atom        0.000005     -0.002011     -0.005297
    22   Atom       -0.075613      0.138844      0.187113
    23   Atom        0.179031     -0.033482     -0.019383
    24   Atom        0.000010     -0.001940     -0.005334
    25   Atom       -0.075642      0.138830      0.187033
    26   Atom        0.505122     -0.868357     -1.064110
    27   Atom       -0.058777     -0.172598     -0.214293
    28   Atom        0.001338     -0.001080     -0.009371
    29   Atom       -0.082728      0.134783      0.186380
    30   Atom       -0.060540     -0.167052     -0.217515
    31   Atom       -0.081469      0.134850      0.187888
    32   Atom        0.001273     -0.002472     -0.007766
    33   Atom        0.468251     -0.862135     -1.066978
    34   Atom        0.232171     -0.024789     -0.008536
 --------------------------------------------------------


 ---------------------------------------------------------------------------------
              Nuclear Quadrupole in Principal Axis System
 ---------------------------------------------------------------------------------

       Atom             a.u.   MegaHertz   Gauss  10(-4) cm-1        Axes

              Baa    -0.3812   -51.159   -18.255   -17.065  0.3361  0.4637  0.8197
     1 C(13)  Bbb     0.1854    24.879     8.877     8.299  0.8173  0.2889 -0.4985
              Bcc     0.1958    26.280     9.377     8.766 -0.4680  0.8376 -0.2820
 
              Baa    -0.3353  -178.879   -63.829   -59.668 -0.3314  0.9435  0.0033
     2 H(1)   Bbb     0.1581    84.328    30.090    28.129  0.4713  0.1625  0.8669
              Bcc     0.1772    94.551    33.738    31.539  0.8173  0.2888 -0.4985
 
              Baa    -0.3341  -178.269   -63.611   -59.464 -0.3315 -0.4689  0.8187
     3 H(1)   Bbb     0.1551    82.772    29.535    27.610  0.3406  0.7498  0.5673
              Bcc     0.1790    95.496    34.075    31.854  0.8798 -0.4669  0.0889
 
              Baa    -0.3341  -178.269   -63.611   -59.464  1.0000  0.0017  0.0066
     4 H(1)   Bbb     0.1551    82.772    29.535    27.610 -0.0062  0.6272  0.7788
              Bcc     0.1790    95.496    34.075    31.854  0.0028  0.7788 -0.6272
 
              Baa    -1.8975   137.300    48.992    45.798  0.0027  0.8633  0.5046
     5 O(17)  Bbb    -0.1218     8.815     3.146     2.941  0.5761 -0.4138  0.7049
              Bcc     2.0193  -146.115   -52.138   -48.739  0.8173  0.2888 -0.4985
 
              Baa    -0.3585   -48.110   -17.167   -16.048 -0.3272  0.9449  0.0111
     6 C(13)  Bbb     0.1366    18.336     6.543     6.116  0.4742  0.1541  0.8668
              Bcc     0.2219    29.774    10.624     9.932  0.8173  0.2888 -0.4985
 
              Baa    -0.3307  -176.423   -62.952   -58.848  1.0000  0.0001  0.0044
     7 H(1)   Bbb     0.1562    83.361    29.745    27.806 -0.0014  0.9500  0.3123
              Bcc     0.1744    93.062    33.207    31.042 -0.0042 -0.3123  0.9500
 
              Baa    -0.3307  -176.423   -62.952   -58.848 -0.3325 -0.4708  0.8171
     8 H(1)   Bbb     0.1562    83.361    29.745    27.806 -0.1936  0.8821  0.4295
              Bcc     0.1744    93.062    33.207    31.042  0.9230  0.0154  0.3845
 
              Baa    -0.3741   -50.207   -17.915   -16.747 -0.3264  0.9452  0.0125
     9 C(13)  Bbb     0.1443    19.364     6.909     6.459  0.4748  0.1525  0.8668
              Bcc     0.2298    30.843    11.006    10.288  0.8173  0.2888 -0.4985
 
              Baa    -0.3300  -176.095   -62.835   -58.739  1.0000  0.0005  0.0040
    10 H(1)   Bbb     0.1557    83.061    29.638    27.706 -0.0016  0.9558  0.2939
              Bcc     0.1744    93.033    33.197    31.033 -0.0037 -0.2939  0.9558
 
              Baa    -0.3300  -176.095   -62.835   -58.739 -0.3331 -0.4706  0.8170
    11 H(1)   Bbb     0.1557    83.061    29.638    27.706 -0.2113  0.8817  0.4218
              Bcc     0.1744    93.033    33.197    31.033  0.9189  0.0321  0.3931
 
              Baa    -1.8742   135.614    48.390    45.236  0.0009  0.8646  0.5024
    12 O(17)  Bbb    -0.1287     9.311     3.322     3.106  0.5762 -0.4110  0.7065
              Bcc     2.0028  -144.925   -51.713   -48.342  0.8173  0.2888 -0.4985
 
              Baa    -0.3708   -49.761   -17.756   -16.599  0.3247  0.4838  0.8127
    13 C(13)  Bbb     0.1413    18.963     6.767     6.325 -0.4759  0.8261 -0.3017
              Bcc     0.2295    30.798    10.989    10.273  0.8173  0.2889 -0.4985
 
              Baa    -0.3300  -176.070   -62.826   -58.731  1.0000 -0.0024  0.0025
    14 H(1)   Bbb     0.1556    83.037    29.630    27.698  0.0001  0.7340  0.6791
              Bcc     0.1744    93.034    33.197    31.033 -0.0034 -0.6791  0.7340
 
              Baa    -0.3300  -176.070   -62.826   -58.731 -0.3330 -0.4734  0.8155
    15 H(1)   Bbb     0.1556    83.037    29.630    27.698  0.2068  0.8071  0.5530
              Bcc     0.1744    93.034    33.197    31.033  0.9200 -0.3528  0.1708
 
              Baa    -0.3722   -49.950   -17.823   -16.662  0.3256  0.4823  0.8133
    16 C(13)  Bbb     0.1433    19.228     6.861     6.414 -0.4753  0.8270 -0.3002
              Bcc     0.2289    30.722    10.962    10.248  0.8173  0.2888 -0.4985
 
              Baa    -0.3301  -176.112   -62.841   -58.745 -0.3329 -0.4736  0.8154
    17 H(1)   Bbb     0.1556    83.046    29.633    27.701  0.2097  0.8059  0.5537
              Bcc     0.1744    93.067    33.208    31.044  0.9194 -0.3553  0.1689
 
              Baa    -0.3301  -176.112   -62.841   -58.745  1.0000 -0.0026  0.0025
    18 H(1)   Bbb     0.1556    83.046    29.633    27.701  0.0002  0.7318  0.6815
              Bcc     0.1744    93.067    33.208    31.044 -0.0036 -0.6815  0.7318
 
              Baa    -1.8756   135.720    48.428    45.271 -0.0008  0.8658  0.5004
    19 O(17)  Bbb    -0.1287     9.309     3.322     3.105  0.5762 -0.4086  0.7079
              Bcc     2.0043  -145.029   -51.750   -48.377  0.8173  0.2888 -0.4985
 
              Baa    -0.3717   -49.880   -17.799   -16.638 -0.3263  0.9452  0.0127
    20 C(13)  Bbb     0.1427    19.147     6.832     6.387  0.4748  0.1523  0.8668
              Bcc     0.2290    30.734    10.967    10.252  0.8173  0.2888 -0.4985
 
              Baa    -0.3301  -176.106   -62.839   -58.743  1.0000  0.0000  0.0040
    21 H(1)   Bbb     0.1556    83.045    29.633    27.701 -0.0012  0.9554  0.2953
              Bcc     0.1744    93.061    33.206    31.042 -0.0038 -0.2953  0.9554
 
              Baa    -0.3301  -176.106   -62.839   -58.743 -0.3329 -0.4710  0.8169
    22 H(1)   Bbb     0.1556    83.045    29.633    27.701 -0.2100  0.8816  0.4227
              Bcc     0.1744    93.061    33.206    31.042  0.9193  0.0309  0.3924
 
              Baa    -0.3720   -49.925   -17.815   -16.653 -0.3257  0.9454  0.0138
    23 C(13)  Bbb     0.1421    19.067     6.804     6.360  0.4753  0.1510  0.8668
              Bcc     0.2300    30.858    11.011    10.293  0.8173  0.2888 -0.4985
 
              Baa    -0.3300  -176.046   -62.818   -58.723  1.0000  0.0000  0.0039
    24 H(1)   Bbb     0.1556    83.005    29.618    27.687 -0.0012  0.9549  0.2970
              Bcc     0.1744    93.041    33.199    31.035 -0.0037 -0.2970  0.9549
 
              Baa    -0.3300  -176.046   -62.818   -58.723 -0.3330 -0.4710  0.8169
    25 H(1)   Bbb     0.1556    83.005    29.618    27.687 -0.2085  0.8816  0.4234
              Bcc     0.1744    93.041    33.199    31.035  0.9196  0.0293  0.3918
 
              Baa    -1.8762   135.764    48.444    45.286 -0.0010  0.8659  0.5001
    26 O(17)  Bbb    -0.1285     9.299     3.318     3.102  0.5762 -0.4083  0.7081
              Bcc     2.0048  -145.063   -51.762   -48.388  0.8173  0.2888 -0.4985
 
              Baa    -0.3718   -49.895   -17.804   -16.643  0.3250  0.4832  0.8129
    27 C(13)  Bbb     0.1401    18.800     6.708     6.271 -0.4757  0.8265 -0.3011
              Bcc     0.2317    31.095    11.095    10.372  0.8173  0.2889 -0.4985
 
              Baa    -0.3299  -176.032   -62.813   -58.718  1.0000 -0.0027  0.0021
    28 H(1)   Bbb     0.1556    83.000    29.617    27.686  0.0005  0.7337  0.6795
              Bcc     0.1744    93.032    33.196    31.032 -0.0034 -0.6795  0.7337
 
              Baa    -0.3299  -176.032   -62.813   -58.718 -0.3331 -0.4738  0.8152
    29 H(1)   Bbb     0.1556    83.000    29.617    27.686  0.2071  0.8067  0.5535
              Bcc     0.1744    93.032    33.196    31.032  0.9199 -0.3532  0.1706
 
              Baa    -0.3706   -49.736   -17.747   -16.590  0.3184  0.4944  0.8088
    30 C(13)  Bbb     0.1425    19.119     6.822     6.378 -0.4800  0.8198 -0.3121
              Bcc     0.2282    30.617    10.925    10.213  0.8174  0.2889 -0.4984
 
              Baa    -0.3313  -176.742   -63.066   -58.955 -0.3312 -0.4729  0.8165
    31 H(1)   Bbb     0.1578    84.197    30.043    28.085  0.1902  0.8141  0.5487
              Bcc     0.1735    92.545    33.022    30.870  0.9242 -0.3370  0.1797
 
              Baa    -0.3313  -176.742   -63.066   -58.955  1.0000 -0.0025  0.0049
    32 H(1)   Bbb     0.1578    84.197    30.044    28.085 -0.0014  0.7464  0.6655
              Bcc     0.1735    92.545    33.022    30.870 -0.0053 -0.6655  0.7463
 
              Baa    -1.8451   133.508    47.639    44.533  0.0157  0.8537  0.5206
    33 O(17)  Bbb    -0.1183     8.557     3.053     2.854  0.5758 -0.4334  0.6933
              Bcc     1.9633  -142.065   -50.692   -47.388  0.8175  0.2888 -0.4983
 
              Baa    -0.4824  -257.387   -91.842   -85.855 -0.3333  0.9428 -0.0003
    34 H(1)   Bbb     0.2109   112.506    40.145    37.528  0.4698  0.1663  0.8670
              Bcc     0.2715   144.881    51.697    48.327  0.8175  0.2888 -0.4983
 

 ---------------------------------------------------------------------------------

 No NMR shielding tensors so no spin-rotation constants.
 Leave Link  601 at Mon May  1 18:05:04 2017, MaxMem=   33554432 cpu:       0.3
 Merz-Kollman atomic radii used.
 Atom Element Radius
    1     6    1.50
    2     1    1.20
    3     1    1.20
    4     1    1.20
    5     8    1.40
    6     6    1.50
    7     1    1.20
    8     1    1.20
    9     6    1.50
   10     1    1.20
   11     1    1.20
   12     8    1.40
   13     6    1.50
   14     1    1.20
   15     1    1.20
   16     6    1.50
   17     1    1.20
   18     1    1.20
   19     8    1.40
   20     6    1.50
   21     1    1.20
   22     1    1.20
   23     6    1.50
   24     1    1.20
   25     1    1.20
   26     8    1.40
   27     6    1.50
   28     1    1.20
   29     1    1.20
   30     6    1.50
   31     1    1.20
   32     1    1.20
   33     8    1.40
   34     1    1.20
 Generate VDW surfaces: Layer= 4 Dens= 6 Start= 1.400 Inc= 0.200

 **********************************************************************

            Electrostatic Properties Using The SCF Density

 **********************************************************************

       Atomic Center    1 is at  -3.870968  1.009786 -0.000362
       Atomic Center    2 is at  -3.514556  0.000890 -0.000580
       Atomic Center    3 is at  -3.512821  1.514765 -0.873075
       Atomic Center    4 is at  -4.940967  1.010057 -0.002020
       Atomic Center    5 is at  -3.395941  1.682883  1.168479
       Atomic Center    6 is at  -3.872267  3.031220  1.168770
       Atomic Center    7 is at  -4.942266  3.031491  1.167112
       Atomic Center    8 is at  -3.514120  3.536199  0.296057
       Atomic Center    9 is at  -3.360700  3.756093  2.427522
       Atomic Center   10 is at  -2.290702  3.755822  2.429180
       Atomic Center   11 is at  -3.718847  3.251114  3.300234
       Atomic Center   12 is at  -3.837026  5.104430  2.427813
       Atomic Center   13 is at  -3.362000  5.777527  3.596654
       Atomic Center   14 is at  -2.292001  5.777256  3.598312
       Atomic Center   15 is at  -3.720147  5.272548  4.469366
       Atomic Center   16 is at  -3.874966  7.229583  3.596967
       Atomic Center   17 is at  -3.516819  7.734561  2.724255
       Atomic Center   18 is at  -4.944965  7.229854  3.595309
       Atomic Center   19 is at  -3.399939  7.902679  4.765808
       Atomic Center   20 is at  -3.876266  9.251017  4.766099
       Atomic Center   21 is at  -4.946264  9.251288  4.764441
       Atomic Center   22 is at  -3.518118  9.755995  3.893387
       Atomic Center   23 is at  -3.364698  9.975890  6.024851
       Atomic Center   24 is at  -2.294700  9.975619  6.026509
       Atomic Center   25 is at  -3.722846  9.470911  6.897564
       Atomic Center   26 is at  -3.841024 11.324227  6.025142
       Atomic Center   27 is at  -3.365998 11.997324  7.193983
       Atomic Center   28 is at  -2.295999 11.997054  7.195640
       Atomic Center   29 is at  -3.724143 11.492344  8.066696
       Atomic Center   30 is at  -3.878967 13.449378  7.194297
       Atomic Center   31 is at  -3.520664 13.954634  6.321809
       Atomic Center   32 is at  -4.948966 13.449912  7.192601
       Atomic Center   33 is at  -3.403818 14.121870  8.363437
       Atomic Center   34 is at  -3.723098 15.027221  8.364391
      ESP Fit Center   35 is at  -4.862914  0.395599  1.745724
      ESP Fit Center   36 is at  -4.574060  0.078741  1.745724
      ESP Fit Center   37 is at  -4.190250 -0.112374  1.745724
      ESP Fit Center   38 is at  -5.120166  0.206975  1.484562
      ESP Fit Center   39 is at  -4.843387 -0.112445  1.484562
      ESP Fit Center   40 is at  -4.487828 -0.340949  1.484562
      ESP Fit Center   41 is at  -4.862858 -0.427215  1.166335
      ESP Fit Center   42 is at  -4.959753 -0.596053  0.803273
      ESP Fit Center   43 is at  -5.131692 -0.618935  0.409327
      ESP Fit Center   44 is at  -1.853480  0.595181  0.409327
      ESP Fit Center   45 is at  -1.770968  1.009786 -0.000362
      ESP Fit Center   46 is at  -1.811319  1.419475 -0.000362
      ESP Fit Center   47 is at  -5.037666 -0.736300 -0.000362
      ESP Fit Center   48 is at  -1.811319  0.600096 -0.000362
      ESP Fit Center   49 is at  -1.811319  1.009786 -0.410052
      ESP Fit Center   50 is at  -1.853480  1.424390 -0.410052
      ESP Fit Center   51 is at  -5.131692 -0.618935 -0.410052
      ESP Fit Center   52 is at  -1.853480  0.595181 -0.410052
      ESP Fit Center   53 is at  -4.589090  2.812137 -0.803998
      ESP Fit Center   54 is at  -4.959753  2.615624 -0.803998
      ESP Fit Center   55 is at  -4.959753 -0.596053 -0.803998
      ESP Fit Center   56 is at  -1.976181  0.592712 -0.803998
      ESP Fit Center   57 is at  -4.862858 -0.427215 -1.167060
      ESP Fit Center   58 is at  -5.120166  1.812596 -1.485287
      ESP Fit Center   59 is at  -5.120166  0.206975 -1.485287
      ESP Fit Center   60 is at  -4.843387 -0.112445 -1.485287
      ESP Fit Center   61 is at  -4.487828 -0.340949 -1.485287
      ESP Fit Center   62 is at  -2.621770  0.206975 -1.485287
      ESP Fit Center   63 is at  -5.017800  1.224166 -1.746449
      ESP Fit Center   64 is at  -5.017800  0.795406 -1.746449
      ESP Fit Center   65 is at  -4.862914  0.395599 -1.746449
      ESP Fit Center   66 is at  -4.574060  0.078741 -1.746449
      ESP Fit Center   67 is at  -4.190250 -0.112374 -1.746449
      ESP Fit Center   68 is at  -3.763319 -0.151935 -1.746449
      ESP Fit Center   69 is at  -3.350926 -0.034599 -1.746449
      ESP Fit Center   70 is at  -4.566937  0.607968 -1.940509
      ESP Fit Center   71 is at  -4.272786  0.313817 -1.940509
      ESP Fit Center   72 is at  -3.870968  0.206151 -1.940509
      ESP Fit Center   73 is at  -3.731964 -0.375672  1.622176
      ESP Fit Center   74 is at  -3.297148 -0.375672  1.622176
      ESP Fit Center   75 is at  -3.934556 -0.726571  1.454343
      ESP Fit Center   76 is at  -3.514556 -0.839110  1.454343
      ESP Fit Center   77 is at  -3.094556 -0.726571  1.454343
      ESP Fit Center   78 is at  -2.787095 -0.419110  1.454343
      ESP Fit Center   79 is at  -2.326617  0.000890  1.187360
      ESP Fit Center   80 is at  -4.524563 -0.624479  1.187360
      ESP Fit Center   81 is at  -4.230450 -0.947106  1.187360
      ESP Fit Center   82 is at  -3.839651 -1.141700  1.187360
      ESP Fit Center   83 is at  -3.404947 -1.181982  1.187360
      ESP Fit Center   84 is at  -2.985046 -1.062510  1.187360
      ESP Fit Center   85 is at  -2.636658 -0.799419  1.187360
      ESP Fit Center   86 is at  -2.406836 -0.428243  1.187360
      ESP Fit Center   87 is at  -2.059633  0.000890  0.839420
      ESP Fit Center   88 is at  -4.581090 -0.988709  0.839420
      ESP Fit Center   89 is at  -4.242017 -1.259110  0.839420
      ESP Fit Center   90 is at  -3.838307 -1.417555  0.839420
      ESP Fit Center   91 is at  -3.405830 -1.449964  0.839420
      ESP Fit Center   92 is at  -2.983013 -1.353459  0.839420
      ESP Fit Center   93 is at  -2.607427 -1.136614  0.839420
      ESP Fit Center   94 is at  -2.312443 -0.818697  0.839420
      ESP Fit Center   95 is at  -2.124272 -0.427956  0.839420
      ESP Fit Center   96 is at  -1.891801  0.000890  0.434236
      ESP Fit Center   97 is at  -4.919904 -0.810488  0.434236
      ESP Fit Center   98 is at  -4.662017 -1.146571  0.434236
      ESP Fit Center   99 is at  -4.325934 -1.404457  0.434236
      ESP Fit Center  100 is at  -3.934556 -1.566571  0.434236
      ESP Fit Center  101 is at  -3.514556 -1.621865  0.434236
      ESP Fit Center  102 is at  -3.094556 -1.566571  0.434236
      ESP Fit Center  103 is at  -2.703178 -1.404457  0.434236
      ESP Fit Center  104 is at  -2.367095 -1.146571  0.434236
      ESP Fit Center  105 is at  -2.109209 -0.810488  0.434236
      ESP Fit Center  106 is at  -1.947095 -0.419110  0.434236
[...]
 8464 Fit      -0.003866
 8465 Fit      -0.005857
 8466 Fit      -0.008649
 8467 Fit      -0.012717
 8468 Fit       0.001293
 8469 Fit       0.000758
 8470 Fit       0.000186
 8471 Fit      -0.000483
 8472 Fit      -0.001318
 8473 Fit      -0.001407
 8474 Fit      -0.002579
 8475 Fit      -0.004114
 8476 Fit      -0.006167
 8477 Fit      -0.008992
 8478 Fit       0.001497
 8479 Fit       0.000889
 8480 Fit       0.000249
 8481 Fit      -0.000493
 8482 Fit      -0.000616
 8483 Fit      -0.001575
 8484 Fit      -0.002773
 8485 Fit      -0.004296
 8486 Fit      -0.006268
 8487 Fit      -0.008873
 8488 Fit       0.001540
 8489 Fit       0.000867
 8490 Fit       0.000174
 8491 Fit      -0.000038
 8492 Fit      -0.000861
 8493 Fit      -0.001835
 8494 Fit      -0.003007
 8495 Fit      -0.004418
 8496 Fit      -0.006100
 8497 Fit       0.001400
 8498 Fit       0.000690
 8499 Fit       0.000319
 8500 Fit      -0.000400
 8501 Fit      -0.001188
 8502 Fit      -0.002056
 8503 Fit      -0.002974
 8504 Fit      -0.003845
 8505 Fit       0.001805
 8506 Fit       0.001018
 8507 Fit       0.000428
 8508 Fit      -0.000190
 8509 Fit      -0.000793
 8510 Fit      -0.001363
 8511 Fit      -0.001811
 8512 Fit       0.001104
 8513 Fit       0.000234
 8514 Fit      -0.000315
 8515 Fit      -0.000768
 8516 Fit      -0.001067
 8517 Fit      -0.001037
 8518 Fit       0.000924
 8519 Fit      -0.000372
 8520 Fit      -0.000833
 8521 Fit      -0.001139
 8522 Fit      -0.001189
 8523 Fit      -0.001603
 8524 Fit      -0.001971
 8525 Fit      -0.007024
 8526 Fit      -0.007639
 8527 Fit      -0.010558
 8528 Fit      -0.009614
 8529 Fit      -0.006238
 8530 Fit      -0.004441
 8531 Fit      -0.004984
 8532 Fit      -0.008028
 8533 Fit      -0.011904
 8534 Fit      -0.015483
 8535 Fit      -0.012911
 8536 Fit      -0.008602
 8537 Fit      -0.005339
 8538 Fit      -0.003411
 8539 Fit      -0.002533
 8540 Fit      -0.002527
 8541 Fit      -0.003371
 8542 Fit      -0.005151
 8543 Fit      -0.008129
 8544 Fit      -0.012159
 8545 Fit      -0.011336
 8546 Fit      -0.007108
 8547 Fit      -0.004382
 8548 Fit      -0.002688
 8549 Fit      -0.001660
 8550 Fit      -0.001115
 8551 Fit      -0.001000
 8552 Fit      -0.001315
 8553 Fit      -0.002081
 8554 Fit      -0.003356
 8555 Fit      -0.005288
 8556 Fit      -0.007876
 8557 Fit      -0.007259
 8558 Fit      -0.004409
 8559 Fit      -0.002640
 8560 Fit      -0.001484
 8561 Fit      -0.000694
 8562 Fit      -0.000174
 8563 Fit       0.000087
 8564 Fit       0.000063
 8565 Fit      -0.000263
 8566 Fit      -0.000890
 8567 Fit      -0.001836
 8568 Fit      -0.003180
 8569 Fit      -0.005094
 8570 Fit      -0.005496
 8571 Fit      -0.003283
 8572 Fit      -0.001924
 8573 Fit      -0.000991
 8574 Fit      -0.000272
 8575 Fit       0.000308
 8576 Fit       0.000748
 8577 Fit       0.000998
 8578 Fit       0.000998
 8579 Fit       0.000727
 8580 Fit       0.000215
 8581 Fit      -0.000507
 8582 Fit      -0.001462
 8583 Fit      -0.002749
 8584 Fit      -0.003671
 8585 Fit      -0.002248
 8586 Fit      -0.001372
 8587 Fit      -0.000712
 8588 Fit      -0.000113
 8589 Fit       0.000478
 8590 Fit       0.001054
 8591 Fit       0.001558
 8592 Fit       0.001890
 8593 Fit       0.001947
 8594 Fit       0.001696
 8595 Fit       0.001217
 8596 Fit       0.000610
 8597 Fit      -0.000098
 8598 Fit      -0.000965
 8599 Fit      -0.001434
 8600 Fit      -0.001046
 8601 Fit      -0.000661
 8602 Fit      -0.000167
 8603 Fit       0.000466
 8604 Fit       0.001218
 8605 Fit       0.001262
 8606 Fit      -0.000931
 8607 Fit      -0.001106
 8608 Fit      -0.001026
 8609 Fit      -0.000635
 8610 Fit       0.000066
 8611 Fit      -0.001917
 8612 Fit      -0.001298
 8613 Fit      -0.006351
 8614 Fit      -0.005923
 8615 Fit      -0.003320
 8616 Fit      -0.001494
 8617 Fit       0.018103
 8618 Fit      -0.005010
 8619 Fit      -0.005062
 8620 Fit      -0.004079
 8621 Fit       0.017872
 8622 Fit       0.015408
 8623 Fit      -0.002209
 8624 Fit       0.017215
 8625 Fit       0.017431
 8626 Fit       0.016675
 8627 Fit       0.015236
 8628 Fit       0.013438
 8629 Fit       0.011564
 8630 Fit       0.013434
 8631 Fit       0.012374
 8632 Fit       0.010959
 8633 Fit       0.009411
 8634 Fit       0.008798
 8635 Fit       0.007431
 8636 Fit       0.006435
 8637 Fit       0.005031
 8638 Fit       0.003478
 8639 Fit       0.002532
 8640 Fit       0.000592
 8641 Fit      -0.001868
 8642 Fit      -0.005178
 8643 Fit      -0.000067
 8644 Fit      -0.002877
 8645 Fit      -0.006753
 8646 Fit      -0.005600
 8647 Fit      -0.002647
 8648 Fit      -0.001438
 8649 Fit       0.000584
 8650 Fit       0.003329
 8651 Fit       0.006610
 8652 Fit       0.010139
 8653 Fit       0.013533
 8654 Fit       0.016360
 8655 Fit      -0.001228
 8656 Fit      -0.001148
 8657 Fit      -0.000578
 8658 Fit       0.000532
 8659 Fit       0.002165
 8660 Fit       0.004236
 8661 Fit       0.006590
 8662 Fit       0.009003
 8663 Fit       0.011207
 8664 Fit       0.012930
 8665 Fit       0.013953
 8666 Fit       0.014169
 8667 Fit      -0.000538
 8668 Fit      -0.000046
 8669 Fit       0.000711
 8670 Fit       0.001801
 8671 Fit       0.003214
 8672 Fit       0.004869
 8673 Fit       0.006626
 8674 Fit       0.008302
 8675 Fit       0.009692
 8676 Fit       0.010618
 8677 Fit       0.010960
 8678 Fit       0.010689
 8679 Fit      -0.000938
 8680 Fit      -0.000263
 8681 Fit       0.000555
 8682 Fit       0.001452
 8683 Fit       0.002512
 8684 Fit       0.003731
 8685 Fit       0.005042
 8686 Fit       0.006327
 8687 Fit       0.007442
 8688 Fit       0.008241
 8689 Fit       0.008610
 8690 Fit       0.008494
 8691 Fit       0.007897
 8692 Fit       0.006874
 8693 Fit      -0.001205
 8694 Fit      -0.000252
 8695 Fit       0.000876
 8696 Fit       0.001937
 8697 Fit       0.003031
 8698 Fit       0.004148
 8699 Fit       0.005209
 8700 Fit       0.006090
 8701 Fit       0.006660
 8702 Fit       0.006815
 8703 Fit       0.006498
 8704 Fit       0.005709
 8705 Fit       0.004471
 8706 Fit       0.002782
 8707 Fit      -0.003949
 8708 Fit      -0.001697
 8709 Fit      -0.000410
 8710 Fit       0.000960
 8711 Fit       0.002127
 8712 Fit       0.003191
 8713 Fit       0.004132
 8714 Fit       0.004860
 8715 Fit       0.005254
 8716 Fit       0.005213
 8717 Fit       0.004680
 8718 Fit       0.003632
 8719 Fit       0.002046
 8720 Fit      -0.000180
 8721 Fit      -0.003284
 8722 Fit      -0.005062
 8723 Fit      -0.002253
 8724 Fit      -0.000673
 8725 Fit       0.000911
 8726 Fit       0.002139
 8727 Fit       0.003088
 8728 Fit       0.003698
 8729 Fit       0.003848
 8730 Fit       0.003429
 8731 Fit       0.002372
 8732 Fit       0.000618
 8733 Fit      -0.001948
 8734 Fit      -0.005480
 8735 Fit      -0.006083
 8736 Fit      -0.002876
 8737 Fit      -0.000994
 8738 Fit       0.000794
 8739 Fit       0.001923
 8740 Fit       0.002353
 8741 Fit       0.001915
 8742 Fit       0.000472
 8743 Fit      -0.002023
 8744 Fit      -0.005358
 8745 Fit      -0.008416
 8746 Fit      -0.006792
 8747 Fit      -0.003581
 8748 Fit      -0.001334
 8749 Fit       0.000393
 8750 Fit       0.000259
 8751 Fit      -0.001901
 8752 Fit      -0.004452
 8753 Fit      -0.003948
 8754 Fit      -0.001652
 8755 Fit      -0.001203
 8756 Fit      -0.001997
 8757 Fit      -0.002761
 8758 Fit       0.003877
 8759 Fit       0.002151
 8760 Fit       0.000905
 8761 Fit      -0.000078
 8762 Fit      -0.000889
 8763 Fit      -0.001512
 8764 Fit       0.008342
 8765 Fit       0.005615
 8766 Fit       0.003787
 8767 Fit       0.002446
 8768 Fit       0.001374
 8769 Fit       0.000467
 8770 Fit      -0.000290
 8771 Fit      -0.000819
 8772 Fit       0.012062
 8773 Fit       0.008602
 8774 Fit       0.006295
 8775 Fit       0.004640
 8776 Fit       0.003353
 8777 Fit       0.002270
 8778 Fit       0.001299
 8779 Fit       0.000406
 8780 Fit      -0.000386
 8781 Fit      -0.000976
 8782 Fit       0.011722
 8783 Fit       0.008765
 8784 Fit       0.006690
 8785 Fit       0.005128
 8786 Fit       0.003856
 8787 Fit       0.002730
 8788 Fit       0.001662
 8789 Fit       0.000601
 8790 Fit      -0.000467
 8791 Fit      -0.001513
 8792 Fit       0.014216
 8793 Fit       0.010844
 8794 Fit       0.008453
 8795 Fit       0.006669
 8796 Fit       0.005245
 8797 Fit       0.004019
 8798 Fit       0.002874
 8799 Fit       0.001726
 8800 Fit       0.000511
 8801 Fit      -0.000829
 8802 Fit      -0.002343
 8803 Fit      -0.004068
 8804 Fit       0.014369
 8805 Fit       0.011263
 8806 Fit       0.008967
 8807 Fit       0.007202
 8808 Fit       0.005767
 8809 Fit       0.004513
 8810 Fit       0.003328
 8811 Fit       0.002121
 8812 Fit       0.000809
 8813 Fit      -0.000699
 8814 Fit      -0.002519
 8815 Fit      -0.004829
 8816 Fit       0.011802
 8817 Fit       0.009487
 8818 Fit       0.007666
 8819 Fit       0.006169
 8820 Fit       0.004853
 8821 Fit       0.003602
 8822 Fit       0.002313
 8823 Fit       0.000884
 8824 Fit      -0.000808
 8825 Fit      -0.002938
 8826 Fit      -0.005803
 8827 Fit       0.010916
 8828 Fit       0.008877
 8829 Fit       0.007190
 8830 Fit       0.005738
 8831 Fit       0.004405
 8832 Fit       0.003077
 8833 Fit       0.001638
 8834 Fit      -0.000042
 8835 Fit      -0.002149
 8836 Fit      -0.004985
 8837 Fit       0.007968
 8838 Fit       0.006458
 8839 Fit       0.005079
 8840 Fit       0.003740
 8841 Fit       0.002333
 8842 Fit       0.000732
 8843 Fit      -0.001230
 8844 Fit      -0.003815
 8845 Fit      -0.007486
 8846 Fit       0.005815
 8847 Fit       0.004432
 8848 Fit       0.003010
 8849 Fit       0.001433
 8850 Fit      -0.000467
 8851 Fit      -0.002943
 8852 Fit      -0.006430
 8853 Fit       0.003588
 8854 Fit       0.002104
 8855 Fit       0.000345
 8856 Fit      -0.001906
 8857 Fit      -0.005015
 8858 Fit       0.001950
 8859 Fit       0.000208
 8860 Fit      -0.002124
 8861 Fit      -0.005457
 8862 Fit      -0.016815
 8863 Fit      -0.017890
 8864 Fit      -0.015318
 8865 Fit      -0.013997
 8866 Fit      -0.015532
 8867 Fit      -0.017756
 8868 Fit      -0.018813
 8869 Fit      -0.018767
 8870 Fit      -0.016368
 8871 Fit      -0.013377
 8872 Fit      -0.011011
 8873 Fit      -0.010395
 8874 Fit      -0.011693
 8875 Fit      -0.014028
 8876 Fit      -0.016319
 8877 Fit      -0.018039
 8878 Fit      -0.019229
 8879 Fit      -0.019960
 8880 Fit      -0.019945
 8881 Fit      -0.019448
 8882 Fit      -0.017341
 8883 Fit      -0.014404
 8884 Fit      -0.011106
 8885 Fit      -0.008153
 8886 Fit      -0.006303
 8887 Fit      -0.006053
 8888 Fit      -0.007361
 8889 Fit      -0.009682
 8890 Fit      -0.012288
 8891 Fit      -0.014600
 8892 Fit      -0.016346
 8893 Fit      -0.017570
 8894 Fit      -0.018520
 8895 Fit      -0.019416
 8896 Fit      -0.020233
 8897 Fit      -0.020720
 8898 Fit      -0.020546
 8899 Fit      -0.019922
 8900 Fit      -0.018113
 8901 Fit      -0.015476
 8902 Fit      -0.012201
 8903 Fit      -0.008622
 8904 Fit      -0.005210
 8905 Fit      -0.002514
 8906 Fit      -0.001035
 8907 Fit      -0.001037
 8908 Fit      -0.002424
 8909 Fit      -0.004787
 8910 Fit      -0.007578
 8911 Fit      -0.010304
 8912 Fit      -0.012620
 8913 Fit      -0.014360
 8914 Fit      -0.015524
 8915 Fit      -0.016271
 8916 Fit      -0.016879
 8917 Fit      -0.017621
 8918 Fit      -0.018580
 8919 Fit      -0.019621
 8920 Fit      -0.020509
 8921 Fit      -0.020996
 8922 Fit      -0.020857
 8923 Fit      -0.020167
 8924 Fit      -0.018589
 8925 Fit      -0.016187
 8926 Fit      -0.013048
 8927 Fit      -0.009351
 8928 Fit      -0.005377
 8929 Fit      -0.001508
 8930 Fit      -0.000559
 8931 Fit      -0.003676
 8932 Fit      -0.006701
 8933 Fit      -0.009332
 8934 Fit      -0.011398
 8935 Fit      -0.012832
 8936 Fit      -0.013660
 8937 Fit      -0.014018
 8938 Fit      -0.016511
 8939 Fit      -0.017900
 8940 Fit      -0.019223
 8941 Fit      -0.020288
 8942 Fit      -0.020910
 8943 Fit      -0.020916
 8944 Fit      -0.020149
 8945 Fit      -0.018789
 8946 Fit      -0.016587
 8947 Fit      -0.013590
 8948 Fit      -0.009904
 8949 Fit      -0.005703
 8950 Fit      -0.001248
 8951 Fit       0.002484
 8952 Fit      -0.000995
 8953 Fit      -0.004204
 8954 Fit      -0.006920
 8955 Fit      -0.009019
 8956 Fit      -0.010447
 8957 Fit      -0.011197
 8958 Fit      -0.016687
 8959 Fit      -0.018309
 8960 Fit      -0.019620
 8961 Fit      -0.020465
 8962 Fit      -0.020684
 8963 Fit      -0.019829
 8964 Fit      -0.018732
 8965 Fit      -0.016805
 8966 Fit      -0.014072
 8967 Fit      -0.010592
 8968 Fit      -0.006470
 8969 Fit      -0.001866
 8970 Fit       0.001686
 8971 Fit      -0.001572
 8972 Fit      -0.004282
 8973 Fit      -0.006369
 8974 Fit      -0.007794
 8975 Fit      -0.008527
 8976 Fit      -0.017019
 8977 Fit      -0.018576
 8978 Fit      -0.019661
 8979 Fit      -0.020117
 8980 Fit      -0.019164
 8981 Fit      -0.018324
 8982 Fit      -0.016644
 8983 Fit      -0.014139
 8984 Fit      -0.010848
 8985 Fit      -0.006843
 8986 Fit      -0.002228
 8987 Fit       0.002747
 8988 Fit      -0.000233
 8989 Fit      -0.002605
 8990 Fit      -0.017001
 8991 Fit      -0.018424
 8992 Fit      -0.019180
 8993 Fit      -0.018120
 8994 Fit      -0.017514
 8995 Fit      -0.015994
 8996 Fit      -0.013580
 8997 Fit      -0.010309
 8998 Fit      -0.006242
 8999 Fit      -0.001467
 9000 Fit       0.007331
 9001 Fit      -0.016625
 9002 Fit      -0.017814
 9003 Fit      -0.016676
 9004 Fit      -0.016336
 9005 Fit      -0.015031
 9006 Fit      -0.012793
 9007 Fit      -0.009662
 9008 Fit      -0.005692
 9009 Fit      -0.000960
 9010 Fit      -0.016026
 9011 Fit      -0.014844
 9012 Fit      -0.014757
 9013 Fit      -0.013637
 9014 Fit      -0.011537
 9015 Fit      -0.008505
 9016 Fit      -0.004599
 9017 Fit       0.000103
 9018 Fit      -0.013829
 9019 Fit      -0.012671
 9020 Fit      -0.012800
 9021 Fit      -0.011821
 9022 Fit      -0.009807
 9023 Fit      -0.006821
 9024 Fit      -0.002932
 9025 Fit       0.001763
 9026 Fit      -0.010240
 9027 Fit      -0.010523
 9028 Fit      -0.009679
 9029 Fit      -0.007794
 9030 Fit      -0.004943
 9031 Fit      -0.001210
 9032 Fit       0.003289
 9033 Fit      -0.007973
 9034 Fit      -0.007108
 9035 Fit      -0.005156
 9036 Fit      -0.002211
 9037 Fit       0.001606
 9038 Fit       0.006123
 9039 Fit      -0.002055
 9040 Fit       0.001080
 9041 Fit       0.005022
 9042 Fit       0.000977
 9043 Fit       0.001680
 9044 Fit       0.000869
 9045 Fit       0.004167
 9046 Fit       0.005950
 9047 Fit       0.006230
 9048 Fit       0.005003
 9049 Fit       0.002236
 9050 Fit       0.000004
 9051 Fit       0.004214
 9052 Fit       0.007255
 9053 Fit       0.009184
 9054 Fit       0.010044
 9055 Fit       0.009855
 9056 Fit       0.008610
 9057 Fit       0.006278
 9058 Fit       0.002796
 9059 Fit       0.003937
 9060 Fit       0.007599
 9061 Fit       0.010298
 9062 Fit       0.012099
 9063 Fit       0.013051
 9064 Fit       0.013179
 9065 Fit       0.012493
 9066 Fit       0.010979
 9067 Fit       0.008603
 9068 Fit       0.005307
 9069 Fit       0.003177
 9070 Fit       0.007213
 9071 Fit       0.010387
 9072 Fit       0.012778
 9073 Fit       0.014446
 9074 Fit       0.015432
 9075 Fit       0.015766
 9076 Fit       0.015461
 9077 Fit       0.014519
 9078 Fit       0.012929
 9079 Fit       0.010666
 9080 Fit       0.007687
 9081 Fit       0.003305
 9082 Fit       0.007551
 9083 Fit       0.010953
 9084 Fit       0.013600
 9085 Fit       0.015561
 9086 Fit       0.016885
 9087 Fit       0.017609
 9088 Fit       0.017756
 9089 Fit       0.017339
 9090 Fit       0.016365
 9091 Fit       0.014828
 9092 Fit       0.012718
 9093 Fit       0.010013
 9094 Fit       0.003273
 9095 Fit       0.007598
 9096 Fit       0.011123
 9097 Fit       0.013935
 9098 Fit       0.016105
 9099 Fit       0.017685
 9100 Fit       0.018715
 9101 Fit       0.019224
 9102 Fit       0.019232
 9103 Fit       0.018754
 9104 Fit       0.017797
 9105 Fit       0.016370
 9106 Fit       0.014477
 9107 Fit       0.012129
 9108 Fit       0.003738
 9109 Fit       0.008020
 9110 Fit       0.011544
 9111 Fit       0.014393
 9112 Fit       0.016631
 9113 Fit       0.018312
 9114 Fit       0.019473
 9115 Fit       0.020147
 9116 Fit       0.020355
 9117 Fit       0.020118
 9118 Fit       0.019450
 9119 Fit       0.018368
 9120 Fit       0.016893
 9121 Fit       0.015060
 9122 Fit       0.005241
 9123 Fit       0.009380
 9124 Fit       0.012782
 9125 Fit       0.015520
 9126 Fit       0.017655
 9127 Fit       0.019234
 9128 Fit       0.020296
 9129 Fit       0.020871
 9130 Fit       0.020986
 9131 Fit       0.020661
 9132 Fit       0.019922
 9133 Fit       0.018799
 9134 Fit       0.017342
 9135 Fit       0.007230
 9136 Fit       0.011114
 9137 Fit       0.014287
 9138 Fit       0.016805
 9139 Fit       0.018719
 9140 Fit       0.020072
 9141 Fit       0.020900
 9142 Fit       0.021233
 9143 Fit       0.021101
 9144 Fit       0.020535
 9145 Fit       0.019577
 9146 Fit       0.018298
 9147 Fit       0.009130
 9148 Fit       0.012639
 9149 Fit       0.015492
 9150 Fit       0.017721
 9151 Fit       0.019360
 9152 Fit       0.020444
 9153 Fit       0.021006
 9154 Fit       0.021078
 9155 Fit       0.020693
 9156 Fit       0.019899
 9157 Fit       0.008143
 9158 Fit       0.011835
 9159 Fit       0.014882
 9160 Fit       0.017261
 9161 Fit       0.018984
 9162 Fit       0.020075
 9163 Fit       0.020568
 9164 Fit       0.020499
 9165 Fit       0.011100
 9166 Fit       0.014172
 9167 Fit       0.016614
 9168 Fit       0.018360
 9169 Fit       0.019403
 9170 Fit       0.019759
 -----------------------------------------------------------------
 Leave Link  602 at Mon May  1 18:10:36 2017, MaxMem=   33554432 cpu:       3.1

 Test job not archived.
 1\1\GINC-N0286\FOpt\RHF\6-31G(d)\C9H20O5\JSMITH07\01-May-2017\0\\#HF/6
 -31G* SCF=tight Test Pop=MK iop(6/33=2) NoSymm iop(6/42=6) opt\\remark
  line goes here\\0,1\C,-3.8899863729,1.1494594277,0.0493549025\H,-3.49
 42684984,0.1454953408,0.116446001\H,-3.5326108675,1.6089696262,-0.8701
 039659\H,-4.9763503087,1.0987556369,0.0104446564\O,-3.4532561348,1.849
 3582993,1.1709543678\C,-3.8873845304,3.1728815998,1.2260470733\H,-4.97
 42195824,3.226875522,1.2387474367\H,-3.5372287946,3.7347045404,0.36231
 50436\C,-3.3311225851,3.7864381947,2.493600793\H,-2.2449220312,3.73386
 80012,2.4807791717\H,-3.6818361704,3.2260661129,3.3571647863\O,-3.7654
 587975,5.1116883112,2.5493532746\C,-3.3330456827,5.8217582758,3.669768
 2909\H,-2.2468560697,5.8607363271,3.7100227914\H,-3.683730736,5.352948
 2577,4.5863842103\C,-3.8915939906,7.2255502847,3.5673732443\H,-3.54085
 54668,7.694405228,2.6507718267\H,-4.977810963,7.1865885806,3.527182535
 1\O,-3.4594148256,7.9361462372,4.6877094867\C,-3.8935558956,9.26101561
 01,4.7435618088\H,-4.9798728613,9.3136864721,4.7562902779\H,-3.5429260
 633,9.8215002702,3.8798856682\C,-3.3370347998,9.8742860309,6.011376011
 1\H,-2.2507737698,9.8215672644,5.9986604924\H,-3.6876135585,9.31379244
 86,6.8749994384\O,-3.7714388488,11.1990338831,6.0667248048\C,-3.339229
 2014,11.9099538156,7.1873045477\H,-2.2530875697,11.949718154,7.2277919
 992\H,-3.6900964293,11.4418950697,8.1042219762\C,-3.8965595042,13.3136
 462029,7.0868307794\H,-3.5440650943,13.7755250727,6.1685145036\H,-4.98
 14693663,13.2675567127,7.0451693261\O,-3.4546100768,14.0153125847,8.21
 80475228\H,-3.7833026027,14.9022587045,8.1929531467\\Version=EM64L-G09
 RevA.02\HF=-726.6970055\RMSD=5.910e-09\RMSF=3.169e-05\Dipole=-0.409077
 ,0.2756622,-0.5110717\Quadrupole=0.0387275,13.0204319,-13.0591594,-9.0
 002234,-0.9406332,-1.1514811\PG=C01 [X(C9H20O5)]\\@


 Everything starts as somebody's daydream.
                           -- Larry Niven
 Job cpu time:  0 days  0 hours  6 minutes 34.9 seconds.
 File lengths (MBytes):  RWF=    178 Int=      0 D2E=      0 Chk=      8 Scr=      4
 Normal termination of Gaussian 09 at Mon May  1 18:10:36 2017.
